(written by ASE)

3000 atoms
2 atom types

0.0      33.200000000000003  xlo xhi
0.0      33.200000000000003  ylo yhi
0.0      33.200000000000003  zlo zhi

Masses

     1      12.010999996910238 # C
     2      28.084999992775295 # Si

Atoms # atomic

     1   2      31.475034999999998      33.199702000000002      4.0957809999999997
     2   2      31.464984000000001      10.343959999999999               12.548553
     3   2      16.206406999999999               14.596627               20.545721
     4   2      20.087993000000001      14.129212000000001               12.278722
     5   2      32.710858000000002               17.040965      27.583901999999998
     6   2               15.402801                 14.7362   0.0013090000000000001
     7   2     0.22314600000000001      8.2533250000000002               27.304527
     8   2               27.786946      19.220503000000001      19.042660000000001
     9   2      16.941693000000001      2.7083210000000002      26.532530999999999
    10   2                2.084076      24.529008000000001      5.8471859999999998
    11   2               17.422704      23.009602999999998      21.721861000000001
    12   2      17.278742000000001      3.2959740000000002      9.4377010000000006
    13   2      24.053481999999999      6.3586159999999996      4.2471870000000003
    14   2   -0.027394000000000002               21.534288      3.0703339999999999
    15   2      30.478923000000002      4.3812930000000003      31.738524000000002
    16   2      20.272953000000001      11.737992999999999      4.0051629999999996
    17   2      4.6308109999999996      1.9878420000000001      29.152892999999999
    18   2      20.230692999999999      29.741019999999999      15.986988999999999
    19   2      23.047080000000001      5.7749629999999996      29.481159999999999
    20   2               14.168284      22.206378000000001      32.821205999999997
    21   2      24.880565000000001      28.237117999999999      18.316725000000002
    22   2      16.194293999999999      7.5847119999999997      1.8489100000000001
    23   2      33.200000000000003                5.105728      26.486432000000001
    24   2      23.242782999999999      8.9031269999999996      7.9862510000000002
    25   2      31.345372999999999      2.2519930000000001               29.850527
    26   2     0.80539400000000005               14.364464               12.002298
    27   2               13.445147      18.000980999999999      16.620778000000001
    28   2               31.768151     0.73978100000000002               12.123647
    29   2      3.7664680000000001      8.1197180000000007      19.714317999999999
    30   2      1.8399110000000001      4.6520580000000002      9.8038310000000006
    31   2                 15.7029      11.386323000000001      10.561519000000001
    32   2      30.896716000000001      8.5115479999999994      7.7249670000000004
    33   2               24.113778      17.361235000000001      6.9753860000000003
    34   2      15.210347000000001      10.477989000000001      29.157606999999999
    35   2      29.857099000000002               22.914856      31.917242999999999
    36   2      15.924179000000001      8.3021949999999993      18.487286999999998
    37   2      31.056152999999998      30.850777999999998                1.907009
    38   2      9.7226820000000007      23.668755999999998      24.318795000000001
    39   2      24.129791000000001      33.194760000000002      28.325469999999999
    40   2      5.6851750000000001      30.414352000000001      8.7177389999999999
    41   2               14.288674      30.501422999999999      26.287082999999999
    42   2      26.502026000000001               22.651097      18.866710000000001
    43   2                3.270086      3.8467989999999999               30.131556
    44   2      2.7614049999999999      4.5753599999999999      7.8091939999999997
    45   2      2.3209430000000002      20.239384000000001      23.645361999999999
    46   2      9.0575690000000009      6.4207080000000003      21.869440999999998
    47   2 -0.00058100000000000003      30.440570999999998      17.281019000000001
    48   2      7.9357009999999999               13.862361                5.238988
    49   2               16.629769     0.49089699999999997     0.51218799999999998
    50   2               11.471793      4.1740250000000003      9.1959870000000006
    51   2      31.371649000000001      20.713719999999999      19.129301000000002
    52   2      17.197773000000002               18.571171      17.802406999999999
    53   2      11.692676000000001      3.6906379999999999                32.46499
    54   2      20.064620000000001                3.135799      13.464301000000001
    55   2                16.26924      12.713490999999999               22.117321
    56   2      27.878177000000001      2.8576359999999998      22.389555999999999
    57   2      10.843082000000001               24.341631                 7.60839
    58   2      17.141825999999998               20.201753               31.237997
    59   2      8.7828850000000003      16.150971999999999               19.247436
    60   2               10.927213      6.6754480000000003      18.590381000000001
    61   2      6.0761770000000004      24.049797999999999      25.337064000000002
    62   2      6.8930429999999996      20.616548000000002      11.244699000000001
    63   2                3.136174      7.4803100000000002      27.278231999999999
    64   2               18.818099      18.792947999999999      25.489792999999999
    65   2      8.2269810000000003      21.808143000000001               14.964027
    66   2      25.994174000000001               31.313067               23.552578
    67   2      7.6597660000000003      7.9458950000000002      32.105576999999997
    68   2      32.080283000000001      21.379491000000002                1.721157
    69   2               24.084069                3.299442      26.448671999999998
    70   2      6.2582170000000001               16.718014      18.878160000000001
    71   2               22.553898      22.688248000000002               15.202038
    72   2      28.730982000000001               26.298323               28.157909
    73   2                1.709589      21.390996999999999      26.710311999999998
    74   2               12.707328      31.273813000000001      14.855734999999999
    75   2      5.5789220000000004                4.934247      8.0821860000000001
    76   2      2.9480940000000002      16.379083000000001               26.778986
    77   2      11.723955999999999      8.7562309999999997      16.650058000000001
    78   2               25.062763      24.049213999999999      17.501249000000001
    79   2      18.176387999999999      10.088782999999999      30.296254000000001
    80   2      31.481605999999999      8.2930039999999998      28.119890000000002
    81   2               20.702942      28.174060000000001      21.334585000000001
    82   2      16.531151000000001      27.414315999999999      4.0572679999999997
    83   2               13.008279      31.288858999999999               28.144997
    84   2      9.7832419999999995      14.588658000000001     0.87507900000000005
    85   2      24.531863000000001    0.094134999999999996      16.822562000000001
    86   2      30.730892999999998      25.819790000000001      29.437857999999999
    87   2     0.30164299999999999               12.455776      1.0929260000000001
    88   2      4.0667910000000003      33.197561999999998      2.9292720000000001
    89   2      9.5478459999999998      4.9443000000000001      26.974592999999999
    90   2      3.9788939999999999     0.14707500000000001      14.701148999999999
    91   2      22.441033000000001               30.880855               28.792997
    92   2      14.347937999999999      28.232299999999999      5.9534010000000004
    93   2      14.789763000000001      16.906479000000001               11.420398
    94   2                1.582125      25.053754999999999      11.848693000000001
    95   2               10.951057               29.968363               15.081277
    96   2               29.360163      7.5712799999999998      21.899781999999998
    97   2      10.590173999999999                       0               25.754756
    98   2      20.709990000000001      22.999552999999999                3.720018
    99   2      29.567101000000001      27.174395000000001      8.1171229999999994
   100   2      9.7285640000000004      29.025151999999999      1.4780120000000001
   101   2      15.947414999999999      8.3436240000000002      33.197026000000001
   102   2                32.72777      3.4951819999999998                3.019752
   103   2      6.0646009999999997      25.143236999999999               27.666148
   104   2      26.827639999999999                       0      20.534780000000001
   105   2      12.180937999999999      28.613092999999999      28.688628000000001
   106   2      20.466778000000001               23.734385      8.0289979999999996
   107   2      11.133368000000001      18.270786999999999      27.476102000000001
   108   2      33.202728999999998      9.8157069999999997      21.324439999999999
   109   2                10.09515      21.833470999999999      21.326374000000001
   110   2      29.565200000000001      17.203348999999999      9.9125870000000003
   111   2               11.532491      21.669239999999999      6.4560449999999996
   112   2      30.639378000000001      2.2417600000000002                1.774073
   113   2               24.435012      17.305848999999998               10.659215
   114   2                 13.2384               19.066889      8.3481609999999993
   115   2      19.796164000000001      31.135148000000001      28.082619000000001
   116   2      7.0908290000000003               18.340902      28.908694000000001
   117   2      2.6217320000000002               13.751051      33.202413999999997
   118   2               16.273577               23.651564                1.996197
   119   2                30.76512      17.111851999999999      26.010262000000001
   120   2      6.2776129999999997      4.3929650000000002      2.5856539999999999
   121   2      9.0511669999999995      16.371303999999999      25.195730000000001
   122   2      31.208960000000001                8.264068      25.219301999999999
   123   2               11.795038               14.609918      27.169312000000001
   124   2      32.205744000000003               25.263379               17.728403
   125   2      25.278331000000001      8.1871449999999992      4.5420850000000002
   126   2      8.1471710000000002      27.770562999999999      12.302426000000001
   127   2      24.848752000000001      26.234666000000001      17.415582000000001
   128   2      21.200423000000001      4.8386570000000004      26.847283999999998
   129   2      20.735821000000001      2.6656390000000001                30.76399
   130   2      6.6733599999999997      16.243922000000001      28.394545000000001
   131   2      8.3968910000000001      25.954094999999999               13.920762
   132   2               11.192731      2.6412360000000001               17.414911
   133   2      24.734953000000001      31.246673999999999      10.158875999999999
   134   2      9.9104010000000002      4.9823219999999999      7.7218609999999996
   135   2               31.093391                6.413532               15.771234
   136   2               28.348775               14.610458                4.893694
   137   2      20.310231000000002      29.484255000000001      11.621797000000001
   138   2               29.194917      5.8808340000000001      23.528010999999999
   139   2      6.4682839999999997      22.566254000000001      6.2303139999999999
   140   2      26.525611000000001      19.642365999999999               26.206139
   141   2      16.742218000000001      18.119195000000001      30.522808999999999
   142   2      24.116648000000001               25.346384               14.484524
   143   2               -0.002088      26.166948999999999      16.592504999999999
   144   2      5.1147309999999999               19.269928      28.661466000000001
   145   2               22.523432               12.771753      17.445236000000001
   146   2      9.4879350000000002     0.99561299999999997      31.376059999999999
   147   2                       0      6.5749709999999997      11.774808999999999
   148   2      28.581251000000002      19.151351999999999      16.864052999999998
   149   2      29.119281999999998     0.92730900000000005      5.4937389999999997
   150   2      6.8717069999999998      12.971315000000001      9.1435560000000002
   151   2      18.049648999999999               29.707203      5.3657700000000004
   152   2     0.76257699999999995      33.199903999999997      20.116175999999999
   153   2               22.568901      24.803698000000001                5.778899
   154   2      18.420235999999999      20.800135999999998               15.666451
   155   2      1.8254220000000001               12.225792               10.035309
   156   2      33.205235999999999      8.7725720000000003      33.198245999999997
   157   2      19.386807999999998      20.481611000000001      32.237924999999997
   158   2               24.252775      26.047143999999999      32.723911000000001
   159   2      30.730202999999999      21.741351999999999      8.8332809999999995
   160   2      16.799099999999999      24.029948999999998                4.105397
   161   2      8.7456230000000001               -0.001026      16.957381000000002
   162   2      15.398618000000001      25.128126999999999      12.342802000000001
   163   2      2.1976740000000001               23.537792      18.510470999999999
   164   2      9.7494150000000008      7.4420380000000002      8.6374169999999992
   165   2      12.252886999999999      27.171375000000001      18.534738999999998
   166   2      23.362628999999998      5.4035929999999999      8.5413499999999996
   167   2      4.4743550000000001               11.873341               11.108457
   168   2      8.9483610000000002      16.423553999999999      27.429258999999998
   169   2               10.533707               22.538318      8.8483719999999995
   170   2      25.140747999999999      29.203607999999999      16.180330000000001
   171   2      9.0760570000000005                1.246753      8.8017450000000004
   172   2      6.6727080000000001               24.856956   -0.012963000000000001
   173   2      12.076553000000001      17.061955999999999      23.614305999999999
   174   2               12.281739      29.404381000000001      13.424295000000001
   175   2               28.119408                1.169295      31.310911000000001
   176   2      24.888083000000002               17.816668      22.700324999999999
   177   2      6.9526289999999999      8.7155559999999994      22.914072000000001
   178   2               28.017823               26.442584      4.7568989999999998
   179   2      19.364000999999998      28.641013999999998      19.336632000000002
   180   2               12.932532      3.1033909999999998      25.001767999999998
   181   2                 1.03217      13.159781000000001               31.802878
   182   2      32.913147000000002      28.026240999999999               28.473191
   183   2      20.064246000000001      24.310459000000002      27.153438000000001
   184   2      27.797063000000001      9.0632350000000006      28.278282999999998
   185   2               21.307029      17.524464999999999      18.246085999999998
   186   2               16.533258      6.2690099999999997  -0.0015070000000000001
   187   2      12.729430000000001      25.200323999999998      19.350411000000001
   188   2      18.560891000000002      5.2763200000000001      31.577618000000001
   189   2               23.104782      4.4804630000000003      21.298158000000001
   190   2      23.439312000000001                0.116119      33.200000000000003
   191   2                28.12641      28.809633999999999      8.4449819999999995
   192   2               13.786427                11.15113      19.673211999999999
   193   2      7.2405900000000001      10.671720000000001      16.441769000000001
   194   2      14.400028000000001      8.4007710000000007      3.6982200000000001
   195   2      22.733360999999999      7.6212999999999997               21.150796
   196   2      7.9506699999999997      23.767568000000001      27.959755999999999
   197   2      12.892189999999999               13.397833      3.3382540000000001
   198   2      23.561810000000001      26.934515999999999                  19.488
   199   2      21.423680000000001      8.9657739999999997      1.6736470000000001
   200   2               11.936857      19.481079000000001               10.062094
   201   2      4.3853280000000003               14.120227      7.3324369999999996
   202   2      24.654852999999999      3.9681039999999999      5.1930449999999997
   203   2      17.226983000000001               15.579806      33.138016999999998
   204   2      20.589362000000001      18.694244000000001      22.897549999999999
   205   2               10.632605      15.157184000000001               19.927052
   206   2      28.426269999999999      26.323312999999999               19.185986
   207   2      19.092963999999998      20.602633000000001      2.1618560000000002
   208   2      5.6514259999999998               12.941186      17.034524999999999
   209   2      2.7212719999999999      1.8422099999999999      30.827909999999999
   210   2      14.477546999999999      18.236515000000001      19.342784999999999
   211   2                1.359091      25.507757000000002     0.84128999999999998
   212   2               16.743126               24.215194                 6.29467
   213   2      15.965184000000001               30.121309      30.300025000000002
   214   2               33.207082      26.684829000000001               13.487617
   215   2                3.224567      12.339503000000001      5.3901640000000004
   216   2               32.872214               15.710276               14.935119
   217   2      14.883618999999999                8.784554      13.879047999999999
   218   2      31.191006000000002     0.67935599999999996      31.624728000000001
   219   2      17.091847999999999               13.558695      2.8072520000000001
   220   2      21.908995000000001               20.719569               14.349596
   221   2                10.11276      7.5010120000000002      29.691562999999999
   222   2      4.7902519999999997      5.1440739999999998               31.034668
   223   2               23.270899                0.000122                0.148399
   224   2      18.668787999999999      7.2495250000000002               11.996613
   225   2      28.974731999999999                0.017203      25.370501999999998
   226   2      8.5793689999999998      27.697641999999998               29.163262
   227   2               26.572637               11.934393      4.8146199999999997
   228   2      29.035523999999999      16.401637000000001      21.616568000000001
   229   2                11.00834                18.48837      29.659389999999998
   230   2                2.331064               29.521424                1.299542
   231   2      19.164128000000002               14.150321               10.203597
   232   2      12.505701999999999      6.7268309999999998      33.190100000000001
   233   2               19.424246      8.5622659999999993               10.400153
   234   2               11.357085      15.127295999999999      6.7296969999999998
   235   2                30.97092      18.822489999999998      33.195376000000003
   236   2      18.076658999999999                7.299963      9.1303540000000005
   237   2      3.7955399999999999               11.134617               28.464509
   238   2      30.757225999999999      6.7392500000000002      9.4630650000000003
   239   2      17.376937000000002                31.18948      10.510787000000001
   240   2               11.299308      22.226455999999999      27.455884999999999
   241   2      30.217680999999999      6.5203519999999999      31.277184999999999
   242   2      10.850519999999999      8.1267600000000009               14.731598
   243   2      2.1198079999999999      18.470894000000001                9.283982
   244   2               28.466542                       0                 3.13144
   245   2               14.488489               31.364773               16.309911
   246   2      28.041170000000001      6.6988669999999999      18.180630000000001
   247   2                25.91639      4.2884190000000002               15.806998
   248   2      1.3095509999999999                18.19323      30.750706999999998
   249   2      15.956683999999999      28.987888999999999      13.566924999999999
   250   2               20.623524      25.788157000000002      10.806330000000001
   251   2      18.802596000000001                20.99024                25.24446
   252   2      3.6359970000000001      20.071791000000001      4.1240360000000003
   253   2      28.938659000000001      17.849239000000001               30.056428
   254   2      12.650631000000001      24.846254999999999      21.913927999999999
   255   2               11.514543               16.083399      21.712420000000002
   256   2     0.96878200000000003      27.458822000000001                1.778643
   257   2               15.429321      26.970389999999998      27.137242000000001
   258   2      10.846970000000001      30.809432000000001      11.661614999999999
   259   2      3.4616850000000001                18.28952    0.078871999999999998
   260   2      25.211431000000001      33.151066999999998      7.7504140000000001
   261   2    0.069296999999999997      26.330687999999999      18.783709000000002
   262   2      26.933084999999998      28.993131999999999      18.129369000000001
   263   2               31.090584      10.484120000000001      24.795719999999999
   264   2      5.3838220000000003               33.052121               24.100759
   265   2      7.3505409999999998               26.622197      33.199233999999997
   266   2               17.326874      25.611560999999998               31.473322
   267   2      24.948336999999999                 31.0808      28.429206000000001
   268   2               13.783649               13.842143      6.0988829999999998
   269   2      24.021854000000001               13.798475      7.2736669999999997
   270   2               24.298627      10.398661000000001      31.163682999999999
   271   2      9.3232680000000006      31.917625999999998      16.055727999999998
   272   2               23.859116      8.7928899999999999               14.684208
   273   2               27.728586      27.863707000000002      16.063549999999999
   274   2      30.396201000000001      8.4624199999999998      32.318921000000003
   275   2                 5.50718               12.453236               24.175438
   276   2                1.410884                11.59491                13.54462
   277   2     0.32719100000000001      1.7425269999999999      28.870229999999999
   278   2      25.543793000000001      28.226020999999999               12.420593
   279   2      32.791350000000001      25.578917000000001      27.430503999999999
   280   2      21.629342000000001               27.325398               12.143321
   281   2      9.7820119999999999      20.410482999999999      9.2901600000000002
   282   2      17.201786999999999               16.522033      17.002368000000001
   283   2               10.571759      20.033505000000002      17.907344999999999
   284   2      18.751221999999999               13.843798      7.0656160000000003
   285   2                5.630763               11.137955               13.141615
   286   2      15.077229000000001      3.8234439999999998               25.533714
   287   2      29.375053999999999      29.619150999999999     0.28219100000000003
   288   2      6.4580539999999997      2.4623949999999999               15.141762
   289   2      14.072032999999999               13.989369      21.292874000000001
   290   2      6.6649459999999996                 0.10215      25.880659999999999
   291   2      16.902774999999998      16.347266999999999      21.808367000000001
   292   2      29.072939999999999      33.204731000000002      4.1906650000000001
   293   2      24.175097999999998      1.9708190000000001      8.7221600000000006
   294   2      16.796413000000001      29.893205999999999               15.404308
   295   2      3.8141069999999999 -0.00019799999999999999               22.971408
   296   2               26.546201                1.253738      3.3193030000000001
   297   2      30.683896000000001               29.874298      16.259181999999999
   298   2               29.776315      4.6557370000000002      18.360285000000001
   299   2               25.976903      23.915423000000001                22.99174
   300   2               26.939104      1.8111630000000001      24.851476999999999
   301   2      28.065366000000001      11.819356000000001      19.459333000000001
   302   2               18.573494      31.091906999999999               12.787564
   303   2               10.314992               27.661272      4.7214809999999998
   304   2               11.129412      33.194809999999997      14.914580000000001
   305   2      33.199506999999997      15.227793999999999      22.359114000000002
   306   2      15.105784999999999                5.820703      11.456948000000001
   307   2               21.512362      14.004861999999999               28.876493
   308   2      20.789463999999999               14.271998      4.7622049999999998
   309   2      8.8561340000000008      20.852820999999999      3.9082219999999999
   310   2      4.6196900000000003      25.109787000000001      16.257239999999999
   311   2      12.230128000000001                21.06758      21.707602999999999
   312   2      1.5785899999999999      9.0607150000000001      7.2810930000000003
   313   2      9.0129049999999999      33.199993999999997               19.846149
   314   2      19.173577999999999      5.4596689999999999      25.501525000000001
   315   2      7.7574620000000003      15.966003000000001      4.6173700000000002
   316   2               33.220399      26.119450000000001      6.1321459999999997
   317   2               27.663826      2.0295510000000001               20.020021
   318   2      30.054521999999999               10.124819                1.140849
   319   2               11.879975      13.254613000000001      10.376542000000001
   320   2      33.102632999999997      2.4969920000000001      5.4521269999999999
   321   2               11.129358     0.71197500000000002      6.7518859999999998
   322   2                11.70439      29.175322000000001               26.513838
   323   2               -0.000261      25.785385000000002      8.0395730000000007
   324   2      31.214127000000001      15.103165000000001               21.434749
   325   2      28.957495999999999      28.387962999999999      32.623153000000002
   326   2      25.079868000000001               25.132265      24.613402000000001
   327   2               16.118105      2.9208669999999999      30.683274999999998
   328   2      2.6674549999999999      10.201594999999999      30.428664000000001
   329   2      20.409766999999999      10.824643999999999      20.110596000000001
   330   2               31.695217                1.909564                14.13851
   331   2  -0.0013829999999999999      26.074090999999999                3.300322
   332   2               21.807779               26.904062               14.297421
   333   2      32.045212999999997      14.812716999999999      13.062364000000001
   334   2                31.50272      29.227060000000002               11.099119
   335   2      23.864636000000001      18.651990999999999               25.057506
   336   2      8.0854020000000002      10.911258999999999      29.425274999999999
   337   2                3.347032      26.067979999999999      3.1291869999999999
   338   2      8.9248890000000003               16.414355  0.00019100000000000001
   339   2                15.85045      26.968814999999999      9.3429590000000005
   340   2               12.920009                7.318905      17.916173000000001
   341   2                13.10374               22.836734      22.675273000000001
   342   2      20.118227999999998               13.860991               22.485242
   343   2               11.449209      16.211334000000001      8.6508610000000008
   344   2      9.5846169999999997      7.1740820000000003      6.0717090000000002
   345   2               18.013814      14.505198999999999      17.865103999999999
   346   2               12.856221      24.730605000000001      6.8117510000000001
   347   2      30.979368999999998      31.566099999999999      24.162745000000001
   348   2      21.685009999999998      31.145386999999999      3.8202250000000002
   349   2      11.504220999999999      27.023655999999999               11.121494
   350   2      29.765529999999998      32.283802999999999               13.787169
   351   2      4.9070840000000002               33.081443      7.4053319999999996
   352   2               26.766033      3.4046500000000002      8.3918090000000003
   353   2      16.393329999999999               12.245908      29.727931999999999
   354   2      30.036999999999999      1.6912100000000001      16.354915999999999
   355   2      6.7988189999999999      4.3602689999999997      16.909361000000001
   356   2      4.1895439999999997     0.42057099999999997               17.958278
   357   2      33.126834000000002               12.856798               30.286106
   358   2               24.513178                4.850536      23.685155000000002