ITEM: TIMESTEP
100000
ITEM: NUMBER OF ATOMS
3000
ITEM: BOX BOUNDS pp pp pp
4.1963032278351875e-01 3.2780369677217109e+01
4.1963032278351875e-01 3.2780369677217109e+01
4.1963032278351875e-01 3.2780369677217109e+01
ITEM: ATOMS id type x y z
2323 1 2.56154 2.15707 1.49605
411 2 0.896779 2.49494 0.73508
1810 1 0.905946 3.35501 5.09643
1664 1 4.62377 4.56831 1.09852
381 2 4.87174 2.70665 4.09673
2616 1 3.53631 4.77572 4.13178
2093 1 3.70842 1.43651 4.93098
865 2 5.2126 0.822493 1.75098
611 2 3.94178 5.61659 2.54201
4 2 1.97774 4.88246 5.11317
357 2 3.78154 2.98652 0.432507
229 2 4.57847 4.93809 5.69811
1999 1 6.05798 2.24578 2.64147
1923 1 8.51504 1.66128 4.77699
2062 1 8.93815 1.30253 1.78819
1102 2 6.32184 3.84203 1.55481
893 2 7.7263 1.61914 3.12755
2823 1 9.12972 4.37691 4.43616
2662 1 10.1874 4.18418 1.30127
993 2 10.0161 2.60636 4.97095
2026 1 6.08433 3.93761 5.04333
2570 1 7.42571 5.28944 2.14557
1244 2 9.35569 5.08882 2.72574
930 2 7.36708 5.13175 4.17328
951 2 9.02605 2.73329 0.596539
340 2 11.1913 2.66172 1.89968
2849 1 13.768 0.473495 5.76573
328 2 13.3201 0.934811 1.30501
1852 1 11.8008 2.36133 3.70979
2315 1 12.5198 2.47724 0.675267
926 2 14.0654 3.50755 0.765959
1247 2 13.7595 2.477 3.70129
759 2 11.9816 0.96821 5.17487
2162 1 14.5255 3.77298 2.54522
1984 1 14.4657 0.886935 2.78544
464 2 15.8993 1.36348 1.64752
1806 1 14.3049 3.43573 5.36251
87 2 14.6048 5.48213 2.9656
192 2 19.789 5.61623 3.63201
2454 1 17.675 4.20258 5.0947
1259 2 17.3283 3.94674 3.26776
823 2 18.2147 1.05099 3.7487
1821 1 17.4161 2.21293 2.52946
592 2 18.4043 5.05362 0.639464
1166 2 18.4516 1.91382 0.982195
2667 1 21.1301 4.3515 3.10823
136 2 20.6653 0.580181 5.24288
2130 1 19.4951 1.89196 4.71815
2346 1 20.0382 2.46297 1.53944
85 2 20.4774 2.5523 3.31423
1739 1 18.2615 5.43276 2.52638
2566 1 21.9556 1.5293 3.85065
1464 2 21.5122 2.21489 0.446518
1078 2 24.0397 1.38694 5.71808
2217 1 26.8234 5.61185 1.894
2801 1 22.3801 0.58102 0.689338
537 2 25.8006 1.35547 0.733795
1091 2 22.9072 0.517187 2.5171
460 2 22.2075 3.37147 4.47455
942 2 22.444 4.6283 1.63405
2200 1 26.5609 3.19203 3.54382
1830 1 26.6147 3.01727 0.51401
121 2 24.6974 2.8759 3.22931
2239 1 24.157 4.34542 2.3085
2961 1 24.7078 1.20232 2.40032
1629 1 23.9752 3.06507 4.9146
524 2 25.6102 4.51945 1.04934
549 2 26.858 5.07662 3.7083
1841 1 27.4161 0.596957 4.42613
1419 2 27.4818 2.52546 2.10485
2206 1 27.4738 0.736733 1.45653
820 2 27.4016 2.37466 4.9916
218 2 32.5504 3.80968 3.4017
625 2 29.2863 0.954763 4.05692
1047 2 29.5488 4.2097 3.81282
2517 1 30.2948 0.54842 2.55058
1461 2 32.5364 1.66063 5.6259
1753 1 32.1152 2.45656 2.2793
1288 2 32.0922 0.59025 2.85583
2491 1 29.0478 3.58346 2.14695
1208 2 30.3234 2.29855 1.75428
1596 1 29.2882 2.69807 4.77788
127 2 28.4214 5.01817 1.12705
2781 1 31.1808 4.99387 3.48993
2822 1 28.4864 5.52943 4.59603
915 2 5.21156 10.8321 3.44352
1673 1 0.691998 11.0767 1.70824
2493 1 1.61284 9.17247 3.63151
2230 1 0.953876 6.45503 4.85318
1380 2 1.79854 10.0086 5.22828
2682 1 3.26004 9.20052 0.926729
2813 1 1.63299 6.53538 1.61381
492 2 1.59536 7.35861 3.24115
1743 1 4.53279 7.37063 3.02062
1038 2 5.00294 8.47029 1.47588
1343 2 2.36846 10.2832 2.26727
1173 2 5.49831 7.63313 4.61566
1676 1 5.77968 9.50343 4.77652
979 2 10.6475 9.68504 5.77558
2862 1 8.98717 9.01924 5.77371
1129 2 6.60392 11.1398 0.573864
2042 1 6.01986 9.93667 1.91579
1871 1 8.50938 10.4824 3.47864
436 2 10.4527 10.4992 3.11551
1158 2 7.58961 10.0076 5.16669
2750 1 7.2463 6.94355 4.4443
324 2 8.98257 7.37924 4.8086
922 2 7.54883 9.17033 2.48571
1528 1 8.37853 8.2392 1.14536
1245 2 7.52584 6.59785 0.708085
1407 2 10.1803 7.90478 1.64947
2317 1 10.0238 6.92932 3.2756
2978 1 10.8869 9.59747 1.59586
2412 1 14.826 8.70309 3.93989
2838 1 15.7821 5.96344 4.2499
2850 1 15.5915 6.85987 1.73725
2070 1 16.3966 10.865 4.85316
1243 2 16.4243 9.65133 3.44313
520 2 13.4415 9.89378 4.518
359 2 14.3333 10.7481 1.77174
1717 1 16.1014 10.6667 1.93566
2698 1 13.9225 9.07851 1.07514
1718 1 12.9891 6.55915 2.76127
674 2 12.4394 5.93568 1.12325
2415 1 11.6986 9.18733 4.33832
289 2 11.751 7.29078 3.92652
555 2 15.0591 7.32189 5.2476
1143 2 14.2207 7.88621 2.38437
1299 2 21.7985 9.94198 2.44922
2532 1 18.8008 9.73276 5.51588
2548 1 17.8492 8.46325 3.02038
757 2 16.9942 6.80619 3.00886
1088 2 18.2688 9.01532 1.28868
2992 1 19.9047 8.17927 0.76563
1802 1 19.414 6.82531 4.98731
571 2 19.4055 8.54735 4.13256
448 2 21.0093 7.18252 1.81154
2226 1 21.231 8.35203 3.242
1767 1 20.3242 11.0398 2.29991
1599 1 23.353 10.7926 3.14354
2373 1 22.575 9.53846 0.727932
1228 2 26.8091 10.1379 5.31332
2720 1 26.5544 10.5505 3.53907
397 2 22.9738 10.8519 5.00045
439 2 22.534 7.90483 4.58286
2508 1 22.5363 6.43087 1.05343
105 2 24.9912 9.60356 3.22902
465 2 23.6253 8.0309 0.80737
2758 1 24.4181 8.61414 4.73263
1681 1 25.1184 8.27916 1.93448
834 2 26.8429 7.42567 1.60479
2120 1 22.6936 6.06611 4.75642
360 2 24.0893 10.5735 0.561823
2884 1 25.5628 5.82218 4.78042
1103 2 24.1818 5.93642 3.62092
638 2 30.8642 9.51542 5.59947
866 2 31.373 6.13038 4.98208
2528 1 30.9001 10.5389 4.03923
1705 1 28.7468 10.6306 1.10775
1484 2 28.0841 10.0467 2.71801
684 2 32.222 9.74911 2.93457
1721 1 30.3385 7.72275 4.99538
2799 1 29.6884 6.33747 1.08608
777 2 28.4093 7.43344 4.65275
2941 1 31.4771 8.36565 2.01909
1990 1 28.2284 8.14511 2.92101
139 2 29.9793 7.44484 2.52488
752 2 32.3294 5.85344 1.04144
1672 1 1.26585 11.7665 4.67023
2780 1 5.08046 14.1803 1.62971
322 2 3.42664 13.6182 4.79402
345 2 1.00922 12.6893 2.5402
701 2 3.94937 12.6744 1.49808
153 2 3.64395 15.0602 0.883015
2094 1 4.44605 15.1873 4.36015
1746 1 1.71326 14.2651 5.15568
1794 1 2.22395 13.6116 1.40675
2453 1 3.59993 11.5171 2.87829
2351 1 0.570394 16.3509 2.93631
164 2 5.68799 14.3168 3.37812
341 2 9.06839 12.4478 5.73301
1400 2 6.02113 12.5752 5.70774
1519 1 7.73593 12.5197 1.359
2842 1 8.91806 13.4201 4.20656
1235 2 6.89263 14.1242 1.13165
445 2 7.83551 12.2585 3.16759
2762 1 6.04486 12.553 3.89132
361 2 9.75409 12.5328 1.0136
984 2 10.8113 13.1012 4.26507
1556 1 10.8543 12.1992 2.56952
2531 1 7.14906 15.5359 3.07133
712 2 7.96351 14.9119 4.66328
57 2 10.1291 15.836 1.36879
1684 1 9.07889 16.1349 5.40624
1526 1 10.7829 11.6197 5.61595
2907 1 15.0177 13.3914 5.75573
2064 1 15.3686 16.4196 1.8291
1870 1 13.7739 11.462 3.49539
974 2 12.654 12.592 2.40252
1755 1 13.1957 11.8101 0.768894
606 2 15.4011 12.2492 4.11982
2705 1 16.0893 13.6836 3.0007
1007 2 14.5375 14.7428 1.83654
2428 1 12.9481 14.4858 2.70585
100 2 12.8293 15.6357 4.16687
1383 2 15.8296 14.735 4.67763
2188 1 14.5635 16.2277 4.71599
1887 1 11.7796 14.5276 5.36563
2268 1 21.0869 16.4011 0.480965
1236 2 18.1508 16.5048 4.13652
408 2 18.665 13.8549 5.66425
1996 1 17.5343 15.2195 5.36691
568 2 17.9562 13.7073 2.6654
1429 2 17.1586 16.2873 1.28862
2053 1 18.3385 13.1085 0.892707
434 2 17.0364 11.7396 0.672771
2627 1 18.8216 12.8581 4.04741
166 2 20.5332 12.3008 3.64468
2164 1 21.8094 13.4941 2.9317
1054 2 19.5446 11.6153 0.727148
2874 1 18.4753 15.6457 2.47533
2433 1 21.3654 16.4827 3.57459
171 2 18.1437 11.3781 5.17301
2090 1 21.3033 11.6686 5.33267
399 2 21.7135 14.7748 4.22565
2966 1 24.3405 11.834 5.6975
932 2 22.3971 15.0608 0.59485
1532 1 22.8624 14.5179 5.75326
737 2 26.777 15.7037 5.30669
953 2 23.4059 12.5643 2.52903
2828 1 23.662 12.4264 0.62376
371 2 26.6026 12.4573 3.27197
2034 1 24.9484 13.4596 3.38805
756 2 24.4558 13.6252 5.2072
1582 1 26.6143 14.1249 1.12913
1651 1 23.7955 15.7379 1.59166
570 2 25.3664 14.9295 2.34106
2225 1 26.5179 15.9942 3.31719
113 2 30.2934 11.6351 0.788815
901 2 28.3628 12.7688 5.54627
2759 1 31.451 15.9102 5.29137
2965 1 28.3456 12.6831 3.66882
1120 2 29.8179 13.7175 2.87858
2659 1 29.8287 13.4299 0.973137
2634 1 31.7264 13.4239 3.22402
1114 2 31.35 14.5554 0.599854
1433 2 31.7876 12.0911 4.59408
864 2 32.6368 15.0023 4.12706
1127 2 28.0517 16.0624 2.16222
1751 1 31.2679 16.3225 0.850355
2363 1 29.5372 15.5969 3.09311
1095 2 29.4931 15.8397 4.92795
1413 2 2.34782 19.9537 1.18932
2691 1 4.19045 19.6725 1.67466
572 2 5.04379 21.1746 0.911681
202 2 4.0513 16.8141 3.45069
1331 2 1.57638 17.4732 1.82853
2012 1 3.5383 16.8341 1.57361
2549 1 1.98961 20.4696 5.5493
1927 1 4.09043 18.3985 4.46577
787 2 4.58849 18.1483 0.719297
1942 1 1.89721 21.9217 1.1704
528 2 2.30246 18.9302 4.62144
1203 2 3.13771 21.8401 5.17271
1825 1 1.3586 19.142 2.66355
1447 2 4.95232 19.6124 3.3413
2246 1 1.69192 17.4703 5.74303
2525 1 4.66641 21.175 4.32327
791 2 7.5746 21.8265 5.47246
627 2 7.33162 18.7666 5.08729
170 2 7.50849 20.6555 2.5546
1839 1 6.83684 20.8389 0.780924
2733 1 6.79775 19.0172 3.27125
367 2 9.94389 20.2687 4.25921
1223 2 9.94751 18.9608 1.45046
2574 1 9.6003 21.7201 5.39961
2434 1 6.5555 17.599 0.465657
561 2 7.36823 17.3075 2.25702
1909 1 9.28347 17.3356 2.20273
1388 2 9.86168 17.2828 4.06776
1886 1 9.45261 20.5925 2.54164
2098 1 9.28589 18.7315 5.08221
587 2 12.8217 21.6893 4.01941
503 2 12.314 20.8935 0.776233
2964 1 11.8745 20.0798 4.29587
2313 1 11.8038 19.1144 1.28245
879 2 15.1226 20.5679 5.67146
2869 1 14.2834 18.8702 2.5608
2654 1 14.6578 21.555 4.02464
1176 2 15.0867 20.645 2.54446
98 2 12.459 18.741 3.03621
2299 1 11.7802 17.1936 3.84929
484 2 14.9347 18.0888 0.95671
1086 2 15.1862 17.4186 3.43247
2989 1 17.0329 20.869 2.60129
1099 2 17.5673 21.4467 4.30479
1670 1 19.4225 21.2528 4.54112
111 2 21.0634 19.343 2.51542
1902 1 20.9581 21.0735 2.02806
1965 1 21.6725 19.2362 4.28823
728 2 17.2058 18.4374 5.55182
2751 1 19.0772 17.6621 5.35501
334 2 17.7238 19.0993 2.54794
2918 1 16.9577 17.9464 3.77201
2393 1 16.687 18.7954 0.734471
2192 1 16.9982 20.296 5.69972
438 2 20.957 17.6825 4.95107
1160 2 20.9975 20.6374 5.3231
2044 1 19.4144 18.4747 1.9113
1193 2 20.1333 16.6131 2.14624
160 2 17.8633 21.937 1.32916
422 2 26.3278 20.8031 3.2342
2704 1 26.4355 21.8668 1.61736
1842 1 22.5358 18.542 1.66526
2506 1 25.4382 18.0522 1.12689
2881 1 24.229 17.6683 4.03537
66 2 25.8897 17.6869 2.90625
989 2 23.0087 16.9816 2.72659
1118 2 23.5114 19.3754 4.26993
118 2 24.2147 19.5473 1.36911
1641 1 27.2498 18.9714 3.43301
1610 1 24.4229 20.5188 3.08195
234 2 27.707 21.3269 0.489505
1644 1 31.6887 21.4861 2.8242
472 2 28.1292 21.7602 5.62886
1524 1 31.8381 19.3911 4.95819
2742 1 29.5044 20.8778 4.53981
2134 1 28.3866 17.4967 0.919686
2151 1 30.4919 18.4584 2.81135
1316 2 27.646 18.5614 5.3236
1059 2 31.1253 16.7181 2.58537
2660 1 29.2866 17.6482 5.61353
284 2 30.0415 19.0493 4.53702
1323 2 31.1492 21.1431 5.67015
699 2 32.2251 17.6491 5.6533
212 2 28.7351 18.8971 2.13708
1131 2 31.9675 19.6208 3.06772
1588 1 29.1259 20.5455 1.39827
45 2 29.7942 21.6282 2.87475
1745 1 5.24094 24.5496 4.43351
889 2 4.71984 24.1228 0.806345
1831 1 3.41726 25.2718 1.49127
290 2 4.8208 26.4671 4.00297
1816 1 2.92689 26.6523 3.95776
1050 2 2.16916 26.1301 2.42505
831 2 2.56977 24.9779 4.73873
2806 1 0.706035 25.1032 2.91579
903 2 0.513901 22.6018 3.90668
667 2 2.92191 22.8702 2.41008
2205 1 2.32639 23.1112 4.10935
2215 1 4.60074 22.6743 1.92778
620 2 5.45562 22.7614 3.63082
2446 1 5.5719 27.1428 2.44767
1467 2 10.5857 22.0135 1.98026
2466 1 7.24482 22.3365 3.64354
1231 2 6.87972 25.9506 1.78685
721 2 8.25661 23.9213 3.62161
696 2 9.22183 26.7203 3.81869
2594 1 8.39229 25.4809 2.69622
2266 1 10.0515 23.5209 3.08773
1251 2 10.4143 23.3266 4.90868
1581 1 8.10438 24.5929 5.37454
1623 1 6.38739 24.8 0.439239
2353 1 10.6285 25.9982 4.91687
336 2 10.2223 25.1294 2.01461
2607 1 12.5085 22.0253 2.24223
1634 1 11.4507 26.8171 2.14612
808 2 16.2211 24.4643 0.810781
266 2 13.4929 23.4805 1.65366
1504 1 15.2919 22.9156 1.06688
1269 2 15.4304 27.1076 5.71974
75 2 15.3903 23.2414 3.68639
473 2 13.0229 24.6595 4.72319
2650 1 14.0973 24.5022 3.2656
1457 2 15.0511 26.0907 2.85559
1677 1 12.2829 23.0792 5.27972
1258 2 12.1649 26.9718 5.6517
1766 1 19.2396 26.4207 2.14093
1399 2 18.0719 24.3756 3.81856
1414 2 19.5468 24.7429 1.24803
2633 1 19.379 25.2519 4.90702
2364 1 21.4169 24.8609 1.15073
871 2 20.8756 25.3168 3.72567
71 2 18.9172 26.9856 5.57145
1803 1 16.9065 23.2099 4.68499
2311 1 18.8688 23.2781 2.29689
577 2 20.251 22.3232 3.16289
2723 1 21.4875 23.5383 3.85545
2059 1 16.6617 25.3625 2.30561
161 2 17.5927 26.832 1.5294
2158 1 24.0882 23.6705 4.72175
540 2 22.069 23.2419 1.19942
1345 2 24.0989 22.4616 3.24325
1894 1 23.8732 23.3149 1.59789
888 2 22.4225 23.3901 5.45553
1303 2 23.822 25.6028 4.52645
647 2 26.4698 26.8845 0.84762
2599 1 26.5095 25.0316 1.08353
1982 1 24.6536 26.1422 3.0249
906 2 24.6287 25.0572 1.35691
863 2 26.3545 26.7506 3.75548
2997 1 22.2355 26.5665 4.24152
264 2 24.9245 22.2029 0.423287
1930 1 26.5188 22.0899 4.66251
554 2 27.4056 24.0599 2.60572
2899 1 29.2073 23.3111 2.92802
1090 2 32.3674 22.1549 1.2936
2341 1 31.4148 23.8265 0.594332
1145 2 30.0902 23.602 4.66294
1563 1 31.6909 22.8717 5.36924
2760 1 27.5249 25.3178 3.97359
525 2 29.6078 23.8872 1.06764
1441 2 32.4176 25.8099 4.49921
124 2 32.0661 25.4909 1.41458
2394 1 30.6041 25.3631 4.55042
2243 1 29.2409 25.7092 1.45184
1286 2 29.1605 25.9638 3.32305
2504 1 31.6396 27.3853 1.37817
1773 1 0.578722 32.7022 4.48128
1232 2 2.59984 32.6564 3.9694
32 2 2.38265 32.6583 1.25743
1600 1 5.51158 29.9608 3.71711
504 2 1.9476 28.204 4.62439
739 2 4.44511 27.6729 0.950194
2638 1 5.44446 27.6833 5.53427
2928 1 0.711465 31.9842 1.59629
2870 1 2.41075 29.732 3.4619
892 2 4.61302 29.3832 5.21515
2687 1 3.68872 32.1664 2.45528
272 2 4.0099 30.3082 2.62649
347 2 0.891011 30.2208 2.34012
2815 1 4.40844 29.5347 0.899874
2990 1 1.11611 29.485 0.546286
1123 2 6.59351 28.5522 3.14706
238 2 9.30884 32.2987 5.13216
1420 2 9.19692 29.3965 1.28524
671 2 9.17418 29.5173 4.36501
1788 1 6.57547 31.9071 1.43209
1929 1 8.05099 28.1167 4.24144
261 2 10.9713 31.3628 2.797
2792 1 10.2869 29.6232 2.84013
1516 1 11.0074 31.8331 4.60142
507 2 6.21264 30.2652 0.540962
2119 1 7.3944 29.4717 1.76633
72 2 6.90384 30.9282 2.97274
2019 1 8.12987 31.1091 4.40686
216 2 8.17384 32.4454 0.514036
1933 1 12.0111 31.8916 1.33676
1132 2 12.9045 30.209 0.655568
2797 1 12.3748 28.5849 4.88529
382 2 14.0106 28.9829 3.9046
386 2 11.7526 28.4399 2.96569
2176 1 13.3578 29.3704 2.22726
1489 2 15.0307 32.1836 4.25858
1689 1 15.3447 27.657 3.83058
957 2 15.4697 30.8567 1.07586
2468 1 16.2255 29.1387 1.21522
2195 1 15.2294 30.3244 4.35814
1312 2 11.5788 30.1674 5.65122
403 2 16.3114 29.2359 3.03143
2306 1 16.8092 32.0723 1.33745
2984 1 17.0417 32.481 4.81564
190 2 18.1509 30.8767 4.80689
2959 1 17.9844 29.8973 3.17168
416 2 18.209 30.9174 1.65158
731 2 20.5217 27.5378 1.31823
2883 1 20.012 31.1017 4.92647
138 2 20.6644 30.9154 3.18414
2179 1 19.6562 31.9596 2.00581
2529 1 26.7501 28.0002 2.29431
1434 2 25.7359 32.4433 3.59958
1402 2 26.1038 29.2988 3.63995
2588 1 24.2384 29.0927 3.81636
645 2 27.2475 31.2326 1.4893
2786 1 22.537 31.0615 3.11724
1011 2 23.4272 30.5232 4.69709
405 2 24.032 30.2269 2.19218
2146 1 25.7216 30.8434 2.59579
1574 1 22.2976 28.0844 1.56147
392 2 23.385 27.5547 3.06785
2372 1 26.7255 28.0581 4.94728
1525 1 24.7655 31.9731 5.12393
185 2 28.5631 28.0439 5.38232
2426 1 30.0662 32.0263 5.12694
2275 1 32.4094 27.7319 4.66832
2985 1 29.4673 27.8388 3.59831
243 2 30.1562 31.0826 2.15966
2175 1 28.4955 30.5303 2.65696
2196 1 31.6054 30.1037 3.20472
246 2 28.4318 28.657 2.30353
1452 2 31.711 31.2294 4.89027
1274 2 28.3334 31.2533 4.57614
97 2 31.2677 28.2152 3.24962
30 2 5.53405 5.62016 11.0998
60 2 4.38768 0.448712 6.44458
2022 1 0.81683 3.17611 8.16679
783 2 3.91149 1.28583 9.44976
1476 2 4.40785 3.79839 8.82187
1544 1 5.49991 2.29338 9.12229
2481 1 5.22164 5.43291 9.16851
2071 1 0.824079 1.48646 10.993
2450 1 3.17596 2.98526 9.98748
1279 2 1.35499 2.87367 9.90573
2653 1 3.58245 4.10453 7.15608
2300 1 3.12476 0.955335 7.71493
1301 2 2.42046 2.65084 7.20502
2443 1 6.25344 0.781381 6.57236
1233 2 7.2688 2.56552 5.93029
1571 1 7.64443 4.06423 10.0872
1875 1 8.26693 3.71883 7.08885
601 2 8.59653 3.13361 8.79707
508 2 10.5927 2.87264 10.8427
2009 1 8.38071 1.24243 9.05626
352 2 6.52654 0.873019 8.3995
894 2 9.64743 4.83748 6.22625
526 2 7.00245 5.33518 8.85449
1537 1 10.7997 1.68393 6.50489
1665 1 10.4087 3.40188 9.02642
11 2 9.86655 0.707341 7.93
35 2 6.22101 2.93606 10.7179
857 2 11.0894 5.0123 9.79754
553 2 13.2828 4.88496 5.99448
1503 1 11.5261 4.48537 6.42078
604 2 15.0094 1.02209 10.6121
2910 1 12.2949 2.16393 10.895
1386 2 11.4701 3.09326 7.57337
181 2 13.4847 3.59041 10.8542
1703 1 15.1874 2.91822 10.224
2099 1 13.2106 2.44819 8.05161
650 2 12.5152 1.09616 9.36399
356 2 14.3802 2.01672 6.6356
2456 1 12.9133 4.8061 9.53389
2197 1 15.604 4.85012 7.667
2256 1 16.2007 2.13761 7.04899
260 2 14.3306 3.80396 8.65957
143 2 16.0229 3.83455 6.05843
870 2 16.8663 0.420521 6.69455
1952 1 17.6911 4.46022 10.323
662 2 19.5529 4.00011 10.0624
2091 1 18.4436 5.23341 7.4243
1113 2 21.6388 5.61178 9.06241
1492 2 19.3201 3.38947 5.86472
1137 2 17.2655 4.24032 8.38125
1115 2 18.1157 1.38402 9.09519
1573 1 19.3396 2.71289 8.52221
902 2 21.044 2.62057 7.70259
2804 1 21.1473 3.70832 6.06762
2875 1 21.4265 0.817179 7.01248
441 2 25.183 4.2968 5.89875
1081 2 25.833 0.943392 8.60183
1522 1 22.1674 3.59457 8.86655
900 2 22.6136 3.05255 10.6122
2182 1 23.6035 1.54142 10.3545
18 2 26.9067 4.60777 10.6848
375 2 22.5102 5.15899 6.28372
2063 1 24.1352 4.73465 7.28894
353 2 23.8883 3.115 8.21076
2671 1 26.6362 3.28124 6.40471
1765 1 24.4268 1.48222 7.51046
2994 1 26.9547 2.89008 9.85366
2263 1 28.6634 5.30593 11.2031
1478 2 29.6301 0.511969 6.70246
767 2 29.9223 3.79738 9.47307
821 2 29.053 0.710638 9.22846
115 2 29.2308 5.61775 6.87119
2347 1 30.4515 1.97598 9.64086
2298 1 31.2768 5.05647 9.62707
2 2 32.2613 4.98134 7.95936
1041 2 27.4258 2.98883 8.0167
2912 1 30.9956 1.79276 6.73827
296 2 31.8032 1.82657 8.39051
2938 1 31.0363 5.10362 6.53202
844 2 30.113 3.36761 6.4393
2516 1 28.9754 3.94755 7.86981
1805 1 27.6643 1.11691 7.99014
369 2 0.464877 10.5427 8.07091
177 2 1.70728 10.1354 11.0914
46 2 0.720279 7.54413 6.30661
1497 2 4.07244 6.63718 8.13918
687 2 4.18589 8.3686 11.0929
2421 1 1.57626 7.51641 10.9405
2036 1 3.19347 9.94425 6.64204
247 2 4.93714 9.16381 6.41443
1976 1 1.51244 9.64729 9.26602
700 2 0.701459 8.00038 9.33072
2898 1 0.996005 6.67489 7.99937
332 2 3.28289 9.78541 8.60945
2290 1 4.65808 6.78761 6.27089
1578 1 4.19244 8.20882 9.20328
594 2 6.08985 8.53185 9.19093
1376 2 10.987 6.94039 7.43344
1356 2 7.93906 7.53861 10.8348
2882 1 6.66417 9.09087 10.9317
1124 2 10.9581 7.78434 10.6708
1365 2 8.52025 9.70332 10.6106
81 2 7.68739 10.8015 7.88158
273 2 8.57745 7.98972 7.71846
1559 1 7.47289 7.12159 8.9852
1879 1 8.83594 9.55687 8.77423
2721 1 9.46446 6.60793 6.45478
1507 1 6.17906 9.62258 7.70713
2388 1 10.5485 6.69161 9.24864
76 2 10.7477 9.80757 8.64181
400 2 15.7582 6.74552 8.09205
288 2 13.5871 9.13047 9.77688
2310 1 13.4184 6.80083 5.92586
1480 2 13.6151 6.4944 10.1701
1778 1 15.2815 5.89583 10.9703
2719 1 14.0044 9.82777 6.3065
897 2 13.2385 8.32433 7.07996
2579 1 11.407 8.76089 7.23922
1410 2 15.8054 9.84898 6.3285
702 2 16.5824 9.02625 9.50132
2515 1 14.34 10.7717 9.02166
1750 1 14.1069 7.64227 8.60574
1728 1 11.7887 9.40093 10.1283
1565 1 16.5593 7.47763 6.48748
862 2 17.7994 5.99763 5.86894
2580 1 20.0319 5.85826 9.91622
2617 1 17.3041 9.81998 11.0162
2974 1 21.7898 6.46894 7.418
2538 1 19.3926 8.05761 7.87172
343 2 20.4338 7.30647 6.54197
222 2 20.4041 9.30986 8.92583
1645 1 16.8496 9.91186 7.84737
2038 1 19.8158 10.8706 8.00344
1302 2 20.4719 10.3023 6.30697
616 2 18.7262 6.58312 8.65554
1155 2 17.1505 6.23545 10.7891
1656 1 17.1411 7.22175 9.25369
1058 2 17.9383 8.73922 6.88328
2135 1 21.6159 8.74407 6.00683
883 2 25.6479 7.48618 5.81682
2350 1 26.4295 11.1857 10.9044
2112 1 22.3639 9.27049 8.73246
2273 1 24.6586 7.62036 7.56174
631 2 24.3769 6.14389 8.70254
1207 2 25.3922 8.91438 8.72033
376 2 23.2971 10.9467 8.96953
1762 1 25.1293 10.7851 8.40309
2564 1 27.3664 9.18513 8.93539
1945 1 27.2732 8.37812 5.87589
2896 1 22.995 6.34737 10.0246
961 2 22.7483 8.21849 10.2876
1807 1 25.8451 5.89945 9.87708
96 2 26.8825 11.0033 9.13941
2901 1 24.6282 8.57985 10.4253
1108 2 22.8135 8.14019 7.3837
880 2 28.4725 8.68975 7.43708
1568 1 29.1739 7.03576 8.121
1662 1 31.3457 11.0841 9.02289
1978 1 29.6715 10.1607 6.85776
1024 2 30.2388 6.59591 9.56049
1558 1 32.6295 9.39345 6.39707
168 2 27.6476 8.63048 10.6614
1165 2 30.4701 9.80746 10.2202
1899 1 31.3482 8.10359 10.0358
419 2 2.46005 16.0258 10.0388
2914 1 0.714933 15.1953 7.64324
2545 1 3.75524 15.8923 7.00864
1359 2 1.96878 15.6559 6.33366
2131 1 5.39758 14.2923 9.04149
1212 2 5.35058 15.6657 5.97218
1622 1 2.73653 14.2565 9.43146
292 2 3.06181 12.6531 10.3827
648 2 0.788084 12.809 6.05774
2109 1 3.98315 11.4941 9.05412
108 2 3.29144 11.6563 7.3689
2289 1 4.21741 12.8601 6.29549
2925 1 1.45508 12.117 7.62769
1445 2 1.14651 13.7348 8.66766
732 2 3.93999 14.272 7.9437
2357 1 1.32527 11.9977 11.1919
1144 2 5.8556 12.5838 9.71384
2920 1 9.63056 14.1909 10.4676
740 2 6.50172 15.7581 9.42047
1668 1 7.90975 15.637 8.26416
841 2 9.58334 15.6926 9.18304
1189 2 10.334 15.2475 6.32647
1466 2 9.34441 12.3905 9.85906
1724 1 7.61002 12.3203 8.98249
2492 1 7.61319 11.5264 6.15061
1147 2 7.75503 13.8384 7.63852
2555 1 6.72775 14.2679 6.07964
2400 1 9.51372 13.6803 7.05599
2017 1 10.718 11.6391 8.73308
84 2 11.001 12.551 7.21674
1608 1 10.7753 16.453 7.69764
1180 2 12.4607 16.4045 8.47038
1944 1 12.0818 12.3982 11.1305
1603 1 14.9193 16.5102 10.3007
69 2 15.0587 15.2219 8.91747
2560 1 12.1701 15.485 10.2423
746 2 13.9594 15.0636 11.0126
1404 2 12.822 12.8815 9.44569
2980 1 14.5126 13.6842 9.83475
772 2 15.3695 11.9859 10.1472
1562 1 13.8582 15.6735 7.5375
2392 1 12.7736 12.87 7.57187
1253 2 13.434 14.1124 6.44225
1098 2 16.1521 13.1209 7.19112
43 2 13.5185 11.2348 7.41848
818 2 18.7285 16.5232 10.0634
1859 1 16.666 14.6154 8.22373
1589 1 19.0088 16.3608 8.21197
765 2 18.1171 11.4984 11.1018
860 2 17.5069 15.8588 7.18934
498 2 20.5662 14.5667 11.0014
717 2 20.2265 14.9685 8.17457
2199 1 20.4587 16.52 10.7005
2756 1 20.2787 14.304 6.39694
2391 1 17.6377 15.1819 11.0391
2253 1 17.1572 12.2363 9.75135
2942 1 20.1959 11.3992 10.8884
486 2 17.7542 13.9871 9.58697
1237 2 17.956 11.3994 8.19012
1709 1 17.8432 12.465 6.69597
1889 1 19.6379 13.7844 9.49189
1456 2 20.527 12.1581 9.13401
744 2 21.7478 13.1205 6.49125
1815 1 21.9876 15.2338 8.67409
2278 1 23.424 11.2325 10.8126
1513 1 22.1894 13.6005 11.0191
1374 2 24.9517 12.4248 10.8169
981 2 22.6166 15.8941 7.08878
514 2 25.4829 15.021 8.18147
2378 1 22.1741 12.3564 8.23997
966 2 22.9252 13.7073 9.28859
2048 1 25.7428 14.5098 6.29419
209 2 25.5508 11.9857 7.12628
2439 1 27.2365 11.5699 6.36109
2963 1 24.8512 13.6241 9.39265
2871 1 27.1261 15.7125 8.87084
2933 1 24.35 16.3881 7.6756
147 2 22.1988 16.4112 10.1254
435 2 29.4449 13.2082 10.4838
2401 1 31.9123 13.9192 9.64887
58 2 31.939 12.2128 10.3386
2464 1 28.3109 14.7244 5.87799
269 2 28.4512 14.7235 7.83431
1890 1 30.0901 15.5266 7.95995
914 2 27.869 15.8476 10.753
2189 1 29.4311 14.9767 11.1664
805 2 30.6477 15.3219 9.77168
1238 2 31.4084 14.8021 6.83603
775 2 30.1571 11.771 7.73169
2244 1 28.8173 12.8546 8.79019
1707 1 31.1817 12.8819 6.27763
1197 2 5.3573 21.9302 7.79004
1360 2 5.06694 19.1215 9.17722
1848 1 3.77742 19.3419 10.5639
986 2 1.26558 21.3264 9.93094
1798 1 2.01991 17.4311 8.85585
156 2 2.9391 17.6331 7.24274
167 2 5.2274 18.7915 6.06205
965 2 2.0428 19.0089 9.81457
483 2 2.8045 20.4882 7.2638
1561 1 4.11722 19.0934 7.49515
2872 1 1.45843 20.2294 8.47226
1734 1 11.1259 19.8039 7.31095
938 2 11.1763 17.2758 10.4455
2524 1 8.78698 21.4503 8.25182
2122 1 8.18329 19.7561 10.6019
1289 2 7.50537 20.1334 7.88464
2540 1 6.71995 20.1596 6.15
1023 2 10.2317 21.3893 7.09916
2679 1 10.308 21.8665 10.994
1907 1 8.44322 18.4059 7.92878
1384 2 7.88537 16.898 6.84069
2761 1 6.34997 17.2988 5.94393
668 2 10.0608 18.3044 7.00497
583 2 8.61462 21.6086 10.1421
1940 1 9.42994 16.9536 10.5828
2962 1 6.24875 17.6568 9.77575
1105 2 8.17355 18.0989 9.74878
2897 1 6.02371 20.6499 8.999
2386 1 15.7346 19.5664 8.89133
2675 1 12.9476 18.1733 8.77573
2793 1 14.2079 18.9184 5.85428
653 2 14.6445 17.0683 6.46403
1037 2 14.4256 18.3663 9.80608
309 2 11.9269 19.7496 9.03925
2853 1 14.5853 21.8397 6.92558
1946 1 12.8337 21.3418 9.18302
312 2 14.5602 21.0852 8.58543
1780 1 16.5049 17.4241 6.9678
599 2 12.3947 19.2754 5.86203
2666 1 11.3594 19.0955 10.781
2604 1 15.4585 21.9475 10.0661
2971 1 18.4946 20.5855 10.4841
152 2 17.1041 18.3791 8.53161
2737 1 21.4803 17.3925 6.78357
1222 2 19.6335 17.7615 7.14705
1696 1 17.478 17.9694 10.3776
1056 2 16.9223 20.9627 9.48903
61 2 18.2473 20.7763 6.90757
2817 1 18.7359 19.2675 7.91414
1293 2 19.7686 19.8745 9.29869
1955 1 21.3544 20.2831 8.36419
683 2 21.6884 21.947 7.50673
2177 1 23.9528 20.9673 10.5859
2281 1 22.8946 18.082 9.59397
1063 2 22.2665 18.677 7.90525
2630 1 26.5783 17.3946 6.15394
939 2 23.3725 19.1373 10.9936
414 2 26.543 18.7258 10.8357
2104 1 22.6404 21.4977 5.86559
529 2 24.4143 18.0998 8.56795
1557 1 26.0753 18.735 9.01415
1579 1 23.9254 18.8854 6.8652
355 2 24.2008 20.6933 6.56354
523 2 26.5724 20.4031 8.29251
2782 1 25.2985 21.5324 7.73011
1121 2 24.6686 17.4423 5.99988
1133 2 27.1588 17.4991 8.07473
1801 1 31.7843 17.946 7.39281
2559 1 27.5587 20.1085 6.58912
512 2 30.1428 21.3234 9.15248
2074 1 28.2238 21.1667 9.15234
25 2 32.2358 19.6726 7.60375
1392 2 28.9966 19.9265 7.83999
2342 1 30.7124 20.7898 7.44706
516 2 28.2967 21.2309 11.0631
2308 1 30.6139 19.9947 10.3731
163 2 30.0803 17.3302 7.3545
704 2 32.627 16.8789 8.63439
1959 1 28.1117 17.7342 11.1941
1619 1 31.4529 16.915 10.1766
453 2 29.7036 18.1672 10.2313
2572 1 28.9629 18.2186 8.48319
2889 1 3.6525 22.2752 7.0619
2490 1 1.19604 22.8238 11.0024
2952 1 4.50583 23.3842 9.96232
1175 2 2.60652 23.5956 7.96512
281 2 4.61046 25.1305 9.20095
2387 1 2.77379 25.4784 8.41305
917 2 1.74041 26.5824 7.21254
1885 1 1.16946 25.322 5.97621
23 2 4.83754 27.1356 7.23621
1381 2 1.98129 25.9529 10.1587
2183 1 5.0041 26.5709 10.4441
2777 1 0.84888 23.0652 8.17644
2031 1 5.85871 25.6702 7.7343
801 2 6.06929 23.0171 11.0797
2115 1 8.01033 26.2608 10.0639
872 2 9.6039 27.0088 10.5486
1966 1 7.6294 23.2247 9.94663
2860 1 6.67988 22.87 6.83744
948 2 8.20833 23.2342 8.09875
730 2 8.05244 24.6845 11.1052
1919 1 8.45818 27.0369 7.12671
1096 2 7.51823 26.0522 8.32169
2304 1 9.80719 24.4694 7.8009
478 2 6.32952 24.5821 5.98075
1458 2 9.41682 25.5747 6.27677
79 2 6.66034 27.2552 10.8599
39 2 11.3738 25.5001 8.31387
2991 1 11.3067 26.4007 9.98784
758 2 15.9927 23.6553 9.67382
2039 1 11.64 27.1815 7.36965
2981 1 15.7682 24.4298 7.9515
1262 2 12.5108 23.1068 9.76992
2232 1 15.6689 24.7685 11.0618
1276 2 15.2249 26.4 10.1256
1092 2 12.8621 22.6801 6.96899
726 2 16.1549 22.9005 6.85587
680 2 14.0213 25.3389 7.6532
2919 1 14.0263 26.8433 8.77086
2740 1 12.7066 24.0975 8.21397
2144 1 13.8079 25.9428 5.86479
1913 1 17.5118 22.0403 8.03384
458 2 19.1148 22.9902 8.24163
1786 1 20.138 22.6234 6.78523
1658 1 18.8575 24.9066 7.99248
1784 1 17.1398 26.692 6.25818
2931 1 16.7842 26.8861 9.22658
228 2 17.1675 25.7159 7.84556
896 2 19.6536 24.7742 9.69097
1791 1 21.1763 25.7021 9.40855
1430 2 20.0615 24.5067 6.52157
2297 1 18.4967 25.3359 10.9962
277 2 18.0674 27.0172 10.6278
2184 1 20.0399 22.8993 9.95814
1824 1 21.9127 24.8762 6.61848
569 2 21.9766 22.7 10.2556
475 2 25.501 23.1043 5.82897
522 2 27.2709 23.5632 9.89164
2340 1 23.945 27.3193 6.38473
1580 1 26.1472 24.6238 6.77935
1636 1 25.461 23.5904 10.0896
998 2 24.3262 24.838 10.9179
1653 1 22.8224 22.9418 8.65231
159 2 24.419 22.2505 9.21551
1473 2 22.6353 24.8803 8.38055
1012 2 25.748 25.5918 8.35999
1325 2 22.0982 26.7384 6.05506
2546 1 24.1016 25.8035 9.29303
2052 1 26.5431 27.2414 8.12906
2309 1 32.5277 25.4843 10.2206
878 2 32.4373 23.6517 9.71845
1049 2 29.023 26.2077 10.5642
1549 1 30.5377 23.1011 9.67827
2567 1 28.8829 23.4249 6.00063
1462 2 29.7509 24.1155 8.34262
2170 1 28.3757 24.9879 9.24204
203 2 28.3566 26.8244 8.2053
2993 1 28.5939 26.4582 6.41434
991 2 30.3386 26.1656 6.17181
1819 1 31.033 25.1676 7.54415
2065 1 29.906 27.2693 9.36691
1168 2 31.4644 26.4434 8.91977
481 2 27.7041 24.9251 5.8686
2790 1 27.4704 27.0904 11.1767
1196 2 32.3445 24.0108 6.73611
2258 1 3.74085 32.5946 11.0014
2527 1 2.03802 27.8391 10.2351
741 2 3.91825 28.0695 10.0626
673 2 2.99177 30.8541 10.6291
1949 1 2.71032 27.9761 6.37646
1266 2 0.939517 28.8793 9.05322
2002 1 2.37747 30.4077 8.83175
373 2 1.82288 31.9161 7.8729
1463 2 3.33058 29.4555 7.55109
1858 1 4.02963 30.7643 6.34228
1872 1 4.71689 28.5053 8.40271
466 2 8.81326 29.7256 10.4481
2712 1 7.12133 29.0365 10.1277
151 2 10.332 32.5068 11.0605
432 2 7.62922 32.5567 10.4478
2571 1 6.16592 31.6787 9.44808
665 2 8.98003 30.1713 7.29277
428 2 6.12292 29.771 8.69928
2220 1 7.14722 29.747 6.96663
920 2 7.23465 28.1154 5.91791
2554 1 8.95165 31.9434 6.84456
67 2 7.21538 31.4023 6.10173
2795 1 10.0033 29.3339 6.04743
2606 1 9.87034 29.515 8.85378
2533 1 11.0051 32.2732 9.36314
298 2 9.9583 28.0885 7.50061
1062 2 16.4335 28.4402 8.22735
2283 1 13.7835 32.1643 9.72749
1646 1 12.5041 30.3842 7.41382
346 2 11.5148 30.4565 9.02485
13 2 13.3235 28.2213 7.56023
74 2 13.8012 31.6641 7.25564
244 2 15.934 31.2908 9.2649
2908 1 15.6434 31.4518 7.39501
1194 2 15.8815 29.9647 6.13751
385 2 12.8059 27.599 10.0637
2348 1 15.0702 28.5112 6.86097
1546 1 12.3296 29.4336 10.4451
1377 2 13.1907 31.0241 11.1188
971 2 20.6084 29.639 6.3095
615 2 21.6417 29.8432 9.2621
88 2 20.215 32.2654 8.23739
619 2 20.7498 27.4165 8.74614
807 2 18.1396 29.3727 10.8158
2708 1 20.1785 30.3245 8.14586
2085 1 18.3618 32.5058 7.7653
1234 2 18.318 30.6074 7.92176
2180 1 20.6305 32.7534 10.0201
2716 1 16.7165 32.7249 10.1762
2452 1 21.3949 29.9421 11.0762
2235 1 20.4441 27.7517 6.46467
2764 1 17.7199 29.8874 6.27585
1845 1 17.1333 29.8406 9.21024
2552 1 19.6466 28.0329 10.1754
1857 1 25.0627 28.8226 10.3624
1769 1 22.4108 28.2388 8.75357
1361 2 25.7847 27.8155 6.4955
546 2 23.4215 28.9131 7.11871
2701 1 22.8924 31.0916 8.94505
689 2 23.6629 27.5471 10.0296
2714 1 22.4049 30.1523 6.14616
1076 2 22.6791 31.676 7.15961
983 2 26.7049 28.1482 9.75
1723 1 24.9622 29.8704 7.45267
1075 2 24.6149 30.3328 9.25561