LAMMPS data file via write_data, version 22 Jul 2025, timestep = 620000, units = metal

3000 atoms
2 atom types

0.5313258725293757 32.66867412746845 xlo xhi
0.5313258725293757 32.66867412746845 ylo yhi
0.5313258725293757 32.66867412746845 zlo zhi

Masses

1 12.01099999691024
2 28.08499999277529

Atoms # atomic

4 2 3.6924770707140566 1.174368436013984 3.7857208976942416 1 0 2
2424 1 0.9626808602007997 4.522080808612914 2.762324203007384 2 1 0
536 2 4.347067284952075 4.275596173152381 4.0049886322112735 1 4 0
66 2 1.3915863287994843 3.0149479916125324 3.791194346012299 2 1 1
1831 1 3.099858323644237 2.848543070504324 4.493738098276504 -1 0 0
1514 1 3.911401425083191 4.482096684265829 2.0905376061640593 2 1 1
999 2 2.3578965200186044 5.571394906163601 1.903332927673707 0 1 2
1455 2 4.141238691206471 2.7819178769946213 1.44761686476857 0 -1 0
1272 2 5.314574955493497 5.621779957374434 1.4445962267310966 2 0 -1
2996 1 4.962658113817621 1.5271866390405577 2.534884711063039 0 0 2
2859 1 3.8425043886485035 5.81832637948076 5.016516139290525 0 1 1
2955 1 6.2050026669266325 4.127514143446409 4.209819572868045 -1 1 3
2642 1 8.128761766591255 1.988189385843296 2.400199573089653 0 0 -1
470 2 7.396869720765187 3.7629234058934755 2.826246180038233 -1 -1 1
28 2 6.680060994473803 1.1640788083660665 3.3789817171986347 -1 2 2
2730 1 8.891287186810812 4.827591506054022 3.5986548014243356 1 1 1
2757 1 6.7853313351981495 4.46827730601917 1.251748439803294 -1 0 2
959 2 9.524274559977835 3.7974554017592674 5.098470079544462 0 1 -1
2770 1 10.031183385277924 1.92519197088856 4.649808923600999 0 -1 1
498 2 9.933090754473097 1.4643969404696766 2.8688146856589762 0 3 -1
1788 1 6.898417521418973 1.3769700835965155 5.268337532617447 -1 0 -1
464 2 10.224197241405939 4.939565192892525 2.3565543285675488 -1 0 0
1211 2 6.484506568253758 3.2538302789856033 5.790584966169856 1 0 0
1369 2 8.651818114920033 0.955249668272864 5.7392097697564735 2 0 0
594 2 7.101812760609528 5.865518412945976 4.076226018553016 1 2 1
1554 1 11.525151095072532 1.9273293639131863 1.1726628625769595 1 -2 0
101 2 12.771450232113626 3.0392894845347116 2.2121327822478842 0 -1 1
1953 1 13.483153127496141 2.0869907605021156 3.729265824901657 2 -1 0
1973 1 11.935155680596539 4.615594110016941 2.9051226207682284 -1 -1 -2
2482 1 14.351893917134598 3.497600303721074 1.2308197367382532 0 2 0
1419 2 14.75087569214032 3.03382873496002 4.808749140000802 -1 2 3
1670 1 15.81003986460211 1.1060189923579893 1.8105740966793995 -1 1 -1
626 2 15.597168134043887 4.608650206858981 2.204674113656094 -1 -1 1
2464 1 14.157683204150088 4.655913686173947 5.535426326109876 -1 0 -1
1338 2 11.878960393410843 1.5533844607369873 5.26010146307381 0 -1 1
975 2 12.35603542144577 5.105564412304354 4.629242578665596 1 0 2
1630 1 16.248222339694763 3.4845936092956213 3.6075522594903138 1 0 1
855 2 15.5195878971651 5.8135228310513645 4.957547361676204 1 0 1
2781 1 19.30564460562145 3.0947571743917694 5.520540986406289 -1 -1 -1
1712 1 17.183508196434456 5.308723618355716 5.738843023973434 -1 -1 0
1556 1 16.861613007177844 5.00346305454977 0.8151251675258253 -1 2 -1
2850 1 17.917859812543025 1.1419408525303352 3.88556250268554 1 2 0
867 2 21.513269007400652 4.9430951791256845 1.0274476317816374 0 0 0
367 2 17.80593127788474 4.072318599996265 4.544574002281508 1 1 1
1077 2 17.16511277914415 2.1156376497429212 2.5678128586074367 -1 0 0
1448 2 19.56609261968203 1.5297994232662075 4.553113380851126 0 -2 -1
1626 1 21.160001947569423 2.261885661726422 3.8013420572146095 1 0 3
481 2 20.38745286262664 2.074622118037514 1.991426903630474 0 0 -3
2782 1 18.630940577269115 2.6973054329209973 1.5670397453543659 1 0 -1
1154 2 18.526046956372006 4.577756660875744 1.5938521029671293 0 0 0
1103 2 20.484146841982568 5.135814635806919 4.150191985310243 0 -2 3
2660 1 18.77108833036569 5.119706228372131 3.3370079873547778 -1 1 1
2662 1 21.708648411894362 5.56966883498499 2.8215590968711592 -1 -2 1
2780 1 21.680769014292032 3.024750417473492 1.0074963613686214 0 0 2
2501 1 26.122733606634622 0.7495280422650274 2.6600768930635263 0 2 1
1129 2 23.350994793852237 5.57143060121084 3.873661793391499 -2 -1 0
405 2 24.887292504565256 3.0411355554046438 5.458254541199663 -1 0 0
1244 2 23.026817292586816 2.254068948960586 3.54885650183212 1 0 2
750 2 24.64935693709919 1.0170709304855405 1.3450042849791146 1 1 0
1895 1 24.06486140373458 1.4313222850659817 4.8626448515256 3 0 3
2372 1 26.32929772662042 3.523826235868355 4.437340892950127 -2 2 2
1462 2 24.34268139655956 4.236086600312792 1.3258514546612334 -2 1 0
1048 2 26.08289388423506 2.6243260696535176 2.8426662459155247 -2 0 1
2914 1 24.287253656617537 2.6238228149106164 2.251952409218701 -1 1 2
911 2 26.23504876551431 5.325799840846322 4.150508972778338 1 0 1
2340 1 24.861477847865373 5.448383077608299 2.7501965010716396 1 -1 0
2376 1 23.40944944369634 4.30974109293951 5.25739125035951 -1 0 0
8 2 29.95372603934996 5.483008471967209 32.6584112874665 2 1 -3
420 2 30.0705338589866 0.6192331398143125 0.5336797929548129 -1 -1 2
964 2 28.543454339310678 32.664131745522624 5.641538102056446 -1 -1 1
2767 1 32.65607438188216 1.9186122670438672 1.4508873139936418 -2 1 0
1074 2 32.45025200670246 0.6619105838867816 2.885427209630487 -1 -2 -1
1026 2 31.940570497134633 5.827879040812908 3.267236125840088 -1 1 -1
2196 1 28.202833476080368 5.616110655508503 4.178319206431133 -1 2 0
1765 1 29.308215324380853 0.7615322888474427 3.9058681223863 -2 3 2
2528 1 32.23363451309801 1.7993228108055646 4.492576066370118 1 1 2
197 2 31.773617206450766 3.5581024758823525 1.7179782767451597 -1 2 0
2954 1 27.79103119723883 2.740085159170036 2.041034817365799 1 1 -1
1993 1 28.241500269621252 5.207820969257488 1.3058605445908962 -1 0 1
797 2 28.0936305597561 0.9667068844701311 2.50135182277852 2 1 -1
2518 1 30.4600534383552 3.6668077023666923 3.0836888514554617 0 4 0
92 2 28.645875023644695 4.27955166162438 2.922877685264352 1 1 1
443 2 30.36447675127104 2.221540738446423 4.314664660929287 -1 0 2
1456 2 4.400698478576942 11.247019150584814 0.7887978886482148 1 0 0
1321 2 2.673724277083306 11.125269267389246 3.052567611290329 1 -1 -2
1095 2 2.1535750336547794 6.36337144321721 5.776769574051752 0 -1 0
2777 1 0.709795391007428 6.833250496450556 4.5339059329257525 1 1 2
1326 2 3.201564688407548 9.381691333351828 5.627041827263359 -1 0 1
1329 2 4.305834893862786 7.138395671531987 3.8555790303732684 1 -1 1
2429 1 4.848767925089056 8.816529399958117 4.823856801255486 1 0 2
2886 1 2.838552057266741 7.282994351237403 2.6347915463482208 -2 1 -1
1043 2 3.3021104320129884 8.528552727820738 1.4349195373657142 0 -2 2
369 2 1.38038151302876 8.19058839209156 3.47021083009715 0 3 2
2441 1 4.764108254263092 9.57209192664985 1.806501654960571 -1 -1 1
2237 1 1.919444917937356 9.773460706610043 4.283280322520461 -1 1 1
1472 2 5.293390535792366 10.114559783860262 3.4663820367199625 -1 1 0
501 2 5.766509948984214 8.05755152319866 1.3528069442653912 -1 1 1
2883 1 5.895774430660495 6.871637158319663 2.8932417566491493 -2 -1 0
1064 2 11.18728057141616 8.635022234841678 0.9195274968292393 2 1 0
966 2 8.154104028252782 10.896841257760242 4.985740752873211 -1 -1 -2
2383 1 7.200907794503701 10.693893502667406 3.3790576409490103 -1 0 -2
2995 1 7.3675630449277465 6.778382780097138 5.666013950495749 -1 0 3
1808 1 9.957144757576403 10.266429378775094 1.276225274992008 0 0 -1
2118 1 7.337478515241234 8.881732275282316 0.8521692163960879 1 0 2
571 2 8.729312399916585 8.065847338579797 5.475137494234063 0 -1 -1
1407 2 8.340046185037657 9.541283577805102 2.3559799519232727 -1 2 -1
2451 1 9.119737892905777 8.405073065964164 3.6840090910402696 3 0 0
1907 1 10.117121976738384 7.173250860809258 0.9591370049183024 -2 2 -1
1252 2 11.029493298487692 8.27228152635745 4.040794420153993 -2 -1 0
1232 2 11.4125370116894 11.022664284025444 2.205308006883106 0 0 2
2989 1 15.392577529818523 6.316880260939578 3.0181215558464416 0 0 1
366 2 16.189931179098267 8.442561780927 4.588754947828484 -1 -2 0
1806 1 11.982876436936944 9.92234472651704 3.6431224145417533 2 -1 1
561 2 13.954870339459408 10.178393406617499 3.139170314309104 2 -2 1
2704 1 15.811468060434693 10.547018789221463 1.1521667295590794 3 -1 0
2572 1 15.374456524826064 10.010565600554944 4.40129832909459 -2 1 1
2393 1 12.54867187139116 7.043327721812911 4.390549731547883 1 -1 1
1940 1 13.501218820691857 8.582660101192078 1.9738079199619538 -1 0 -1
158 2 13.57290938829608 6.98883641023933 2.8445972069319936 -2 0 0
521 2 16.530363588358735 6.822892889243363 1.455607205465141 0 1 0
1173 2 21.54782633924307 7.586565466906846 5.796737482843052 1 0 0
358 2 16.8899966678115 11.087994013636775 3.773482674155831 -1 -2 0
2591 1 20.69497313154219 9.287892894568273 5.776608098827736 -1 1 0
2329 1 18.111041547079378 7.762463282918276 1.5627413182030423 -2 2 1
832 2 18.423155987014535 6.729567375981453 5.849872622622385 1 2 2
2427 1 18.034499660109738 8.295928935492027 4.826229698793689 0 2 1
1106 2 19.00850304363195 7.9419055239224825 3.227261990217203 -2 -1 0
1785 1 20.661723675332702 8.75397056879957 2.990025826876482 -1 0 0
1435 2 21.436854139045632 10.025052789976186 4.202466786609386 1 3 1
2366 1 23.232033020227732 10.215331310732752 3.931203754796762 1 2 0
586 2 23.533800955956984 9.995137713760323 2.1303622232893633 1 0 1
762 2 26.330729243423637 7.637225320639562 5.27769033986359 0 2 0
1961 1 22.87862108057819 7.345793735619703 4.504934018988687 0 1 2
2412 1 23.52141453748806 8.153973082996353 1.7678186436201933 2 1 0
983 2 25.102919526683067 7.113793182833306 2.00893648542509 0 -1 -2
414 2 24.372994525227796 8.68205390686736 4.381240418141787 0 -1 0
1430 2 27.14424833263757 9.054705689019634 2.632098368264631 -1 1 0
649 2 22.079395890545143 7.544271773466529 2.8262632758469595 -2 1 -1
2456 1 25.902370146147213 8.015416781566385 3.4356789288515537 -1 -1 1
2358 1 26.78259745640699 10.132467615487158 1.06036564897738 -1 1 2
1918 1 22.351772797776558 10.84960790268918 1.0552234556503732 -1 1 2
2509 1 25.547648455531753 6.065046801119121 5.701347749766441 -1 0 0
2856 1 25.248178876665573 8.936121408536069 6.042971427625443 -2 0 2
746 2 26.563243846650796 10.218573409478527 5.920939073135504 0 0 2
1814 1 27.616274315675025 9.94624616630665 4.37271498419201 -1 -1 1
756 2 29.008693262156243 9.102901348311947 5.251837136899696 0 -1 0
2284 1 29.745800118384324 10.614939260081929 2.3442125737812356 2 0 2
1449 2 29.25632440915001 6.8851109957536005 3.2122161580688675 1 2 0
2426 1 28.461079304598833 8.022705860431117 1.944229746506388 0 -1 2
1206 2 30.651583262934604 8.959910467057092 2.5293715956381924 1 1 2
170 2 31.393839311225157 7.466945806711023 5.523904986638022 -1 0 -1
2605 1 30.179654578119305 8.141952585842667 4.246967849930063 -1 -1 -3
1750 1 30.745715041434803 6.391319813056925 2.044438023084124 0 0 0
2041 1 29.856365950280846 10.903260449049808 5.531614453641066 -2 1 -1
199 2 32.49130399032241 10.879080320276296 4.687232731321197 0 1 1
781 2 28.612183418228543 10.422664074318455 0.7875705454018188 0 -1 2
402 2 27.84804300590918 6.892155176031404 0.6278012313169715 -1 0 -1
880 2 28.972353421346448 11.167469796085696 3.9556972692954164 0 0 1
945 2 32.49194195995704 7.78677919417946 32.6138397931007 1 0 -1
2083 1 32.44668092154956 8.89484669953187 2.0352611010101764 -1 1 -1
2344 1 2.128334875265498 16.430867732118536 0.7238511125286515 0 4 1
1112 2 2.084100566778142 15.55285084510593 2.4807606453305473 0 -1 1
135 2 2.067116580022035 13.188276287449725 0.9294180522886963 3 1 2
30 2 4.800917882151435 14.397257902282734 1.6681721159572456 0 -1 3
1560 1 4.222428655997988 11.727546236071621 3.8781608340431304 1 2 0
2715 1 3.037158719063158 14.009836499493979 2.26463673502088 1 1 1
206 2 3.817489556871115 13.581763408174693 4.002404386785917 3 0 3
2985 1 2.7713568792346104 14.249886460439072 5.491847366411845 1 -2 2
1558 1 5.671585081246725 15.141399003622633 3.183398059632735 -2 0 0
2674 1 2.519454682465473 11.354377248644814 1.1655500686878435 1 1 1
1980 1 5.7188618670905065 12.680580147047635 1.1656093885550851 -1 -1 0
2863 1 4.808758014381479 16.693704581578814 5.876980978593453 1 0 1
114 2 6.917556210111937 12.3766508512559 2.5648586110278613 2 1 0
2017 1 8.20729169785432 13.70055949634848 2.7180612670408033 0 0 0
751 2 9.233200025161219 14.238290931576625 1.309927121081278 0 0 2
850 2 7.299456129666273 15.319326003958611 2.5280048357927996 1 2 2
2773 1 10.154296115008497 15.926987974870139 1.9280752442926816 1 1 0
2857 1 8.560664580041399 12.574471291289871 5.496950928609848 3 0 2
2974 1 9.942334215671776 15.057529864452619 4.795360650938059 2 1 -2
963 2 9.468207507139363 13.404532478367306 4.110803867844247 1 -1 0
919 2 8.4486852702988 16.042761602739617 4.930235234067974 -2 -1 -1
542 2 11.049072683371081 15.895601307499389 3.580551243972221 0 0 0
2761 1 10.982501479505764 12.537354063264004 3.5138626211493285 1 0 1
2913 1 12.671478487719424 11.343800446295017 0.5792174000062931 -1 1 0
1099 2 13.938583526930342 15.904877921249337 3.8625096342831986 1 -1 -1
387 2 14.43301607582597 14.783973805783265 1.1236517953174217 -1 3 -1
1666 1 15.26178842376714 15.013738159433588 2.828955410301711 0 2 1
1947 1 15.776619470303796 13.535884889292307 5.310620822848517 -1 -1 1
1390 2 14.401992505719171 11.77605255951035 0.9853209224789898 0 -2 0
463 2 16.314497437434525 15.323781105281663 5.47413735157379 0 0 1
803 2 12.683949924174861 13.375143611311183 3.122055257578474 2 -1 1
2858 1 14.169573604635994 12.22018948921441 2.7774176190157123 -2 0 0
833 2 15.559789763575772 13.311543090069959 3.4692356153633948 1 1 -2
2292 1 13.361854736707114 11.665734520970913 5.533304712906125 2 1 0
2627 1 12.630094928323475 14.357983927312468 1.469311945281461 1 0 1
2463 1 12.89375505239439 14.494043732412457 4.585816930541164 -1 0 0
1100 2 11.937130251890212 16.078624290070653 1.24472416000435 3 -2 2
737 2 11.645931614119384 11.28202365537959 4.901561837547658 0 0 -1
502 2 16.552367213414616 12.179958400874634 0.9706135101402825 -2 -3 -1
2211 1 18.018268954820176 11.357696165969912 5.234691497214229 -1 0 0
432 2 16.84287084449894 16.156374711386977 2.6372040144252518 -2 3 1
2028 1 17.541901397045642 16.324749513890588 4.412190717485329 0 0 0
160 2 21.472367589645703 13.95338161220026 0.7828183797932794 -1 -1 0
1659 1 17.11026493674383 12.619156110335426 2.6904895653046124 -1 1 1
1015 2 18.64233538608206 13.605654509226401 2.2177627774840922 -1 -1 2
2887 1 20.059170762485007 12.821428081248248 1.1512555635144446 -1 1 2
1916 1 20.694823534344145 11.73423134018273 3.843594589103419 -1 1 1
219 2 21.345992931454724 15.917603296878442 5.5968064528495605 1 0 0
1532 1 17.854540294992383 15.061902276583611 1.4018600770640084 1 -1 0
333 2 21.4296824014361 16.275884669769294 2.6179150876186146 -1 -2 4
656 2 19.087256147734937 16.460405817879636 1.2217449200691184 -2 0 1
2081 1 20.771227854336235 14.833457935405134 4.013219007576964 0 -1 0
1597 1 20.746117926739302 15.69964170274849 0.8666971346817588 -2 0 1
74 2 19.692925817396308 12.197970189700868 5.313301161601468 1 1 0
758 2 21.785985902888036 13.265123179737584 3.8789952271161763 -2 -2 -2
440 2 20.84411614920455 11.345778815816233 1.9313184377246166 1 1 1
149 2 23.798760154324622 11.353606731676477 5.416604987913123 0 0 -1
2576 1 25.65713411967296 11.865085886449128 5.727256235206737 -1 -1 2
937 2 26.13625415977167 11.945525279824821 0.9687774219847819 2 -1 0
1687 1 22.682190197504656 13.480108533648647 2.171208296782742 0 -2 1
934 2 23.661059139852018 12.185974586559709 1.3422411520179458 2 0 1
2790 1 25.118808338060035 11.887101891159336 2.5329162283180042 1 0 1
1688 1 23.27631784341535 16.131287987524033 5.5991602762927295 0 -1 1
924 2 24.13345088213659 14.42513305346967 5.4832947064590325 -1 4 0
49 2 26.024679593652394 12.709114790376914 3.978626276160438 -3 -2 0
778 2 26.87136780611772 14.907464530471412 0.8764770753412775 2 -1 0
2835 1 25.177851540595945 14.38831344050836 3.94816310269288 0 0 2
620 2 24.171646294456895 14.64539155808232 2.4017762197719588 -1 1 1
1845 1 25.038802316493847 14.807610480816786 0.7579112205796753 0 0 0
336 2 26.61171495956668 15.54378530342422 4.183899133152837 -1 -1 -2
2132 1 23.32461284893968 16.376045544748095 2.5712702906103533 1 0 -1
1740 1 22.89038819509264 13.050387079250154 5.3608985013415325 -1 1 1
2299 1 32.35125988354086 12.051581438375521 3.2365475037771283 1 0 -1
2318 1 30.168334761054616 16.505049863999332 0.9949546046495503 0 -2 2
2775 1 27.601927684413905 13.115328243485017 0.7479603871557097 2 0 1
1234 2 28.7718806785833 13.96932048598123 5.47414707538105 -1 2 2
1569 1 32.40156688660851 15.389784937070635 2.9713077068125715 -1 0 1
2925 1 27.76533825754258 15.499747579796942 5.6946848157519945 -1 -1 0
1479 2 31.057858943022016 11.819256529980157 1.8547172906094673 -1 -2 2
2111 1 30.679873936483677 14.281394943103823 5.263174713183689 1 1 0
2703 1 27.974696184841456 12.82779068987898 4.0036661716760955 0 0 4
234 2 28.454322486125392 13.624133875144537 2.395832638756105 1 0 -1
2617 1 30.2886997023656 13.502320532688845 2.156663655967852 -1 1 -1
1097 2 31.451859879916046 13.665045885444588 3.6248190475573137 -1 1 2
1656 1 27.62322828424996 15.306064253250552 2.57398837690941 0 0 -1
831 2 31.228592825157964 14.96053199745272 1.4914011889676906 0 0 0
452 2 31.470033887160394 15.913074583664141 4.535819991049631 -3 -1 0
2511 1 0.5393229880841269 18.49731785183048 2.920073926738536 -1 -1 0
806 2 3.951501495907151 17.006327448506344 0.7912970085163302 -1 1 -1
2826 1 0.7066733106388579 16.950741735680875 5.434594947195155 0 -1 0
2084 1 5.708586173899562 18.350749722952408 3.3205622713659197 1 -2 0
2653 1 5.427335396479764 21.482260823074192 5.171789635361567 2 1 -1
396 2 4.1213956960902145 19.413153961193757 3.501324541166265 0 0 -2
548 2 0.8001267849517906 17.59651208826631 1.257805003248722 2 1 1
292 2 4.8881286046855585 16.723795928655182 3.937622495104912 0 1 1
2217 1 2.988148383922897 19.0779717717224 5.072029994974505 0 1 -1
1760 1 0.9941244501163907 21.246662347253242 4.178878818304039 2 0 3
1567 1 2.909068152286936 20.22820806806799 2.2425201651743984 1 0 1
314 2 1.108641594813308 20.246765563613117 2.5879479365745532 0 1 0
1476 2 1.8271772167885054 20.36386110597277 5.683588171219477 1 0 -1
1442 2 1.7777148185997593 17.84503699180657 4.203745219012037 1 0 -1
2942 1 3.1353216496200536 16.92462340621069 3.312432463644382 1 -1 4
1824 1 5.201721122792179 21.53563773986653 2.1013674219874705 0 0 0
96 2 6.221142800447389 21.883108123495216 3.5245353245413114 1 0 -1
2713 1 7.634085896657352 19.44768132480263 0.7119444473517569 0 0 0
1841 1 7.443328867795521 16.856381396508045 1.5753008623020555 1 -1 1
2272 1 9.644959241179262 21.692268991073142 1.47577846710346 0 -1 0
46 2 9.153084215852395 17.61092016962378 2.091102648870038 0 2 1
2387 1 8.68849525010891 17.73354440589037 3.989668623280833 2 -1 0
1440 2 7.2251850242862945 18.94263786948126 4.213085263148217 0 -1 1
1467 2 10.134122073232124 18.48773377219333 5.044227043383072 1 -1 0
965 2 7.778469785586661 21.086134172014983 1.5014981521458182 0 2 1
754 2 9.106586357059657 21.415558632491084 4.655545650653123 -4 2 1
2865 1 7.719564117748869 20.77900067162907 3.558334185468541 -1 0 3
819 2 10.803544461838008 20.589752640712042 2.4848053962734236 0 0 2
2949 1 10.65729070723822 20.305496231727155 4.375393978386578 -1 1 1
1360 2 6.236555902436433 18.4585792801593 1.5056045404471317 0 1 2
1690 1 10.820735688449753 18.839139042150585 1.85021636902053 0 -2 1
1147 2 12.821891012887788 17.618661302092256 5.8702395341769575 2 0 0
2352 1 15.534213167478232 19.784159219524977 5.766654583816139 3 0 2
1582 1 11.47759011683376 17.464457905079488 4.5077399286917705 0 -1 -1
2285 1 13.759693495370952 19.140296724645914 0.7412733424271568 -1 -2 1
409 2 12.168148832822718 18.32253499477756 3.0350737119632685 3 -1 -3
1602 1 13.180109377187797 16.887007964845154 2.4448056402199305 0 -2 0
524 2 15.034791013071137 18.66364661331306 4.354644451103574 1 -1 1
238 2 14.582449710506216 17.532643702657182 1.234227235084364 0 1 0
2418 1 16.229606774727895 17.86965025375933 2.0931741603545015 0 1 1
1589 1 12.47491449107406 21.504133627945578 2.3020015551495274 1 1 5
630 2 12.502580135542898 20.438985514641086 5.035915517939036 1 0 1
1066 2 13.966251651138109 20.3333708266322 2.2462862985301144 0 0 0
1405 2 15.331994024135161 21.319933889680406 4.64330566518996 -1 -1 0
2369 1 13.44166723584193 19.389685390810556 3.7148382996117624 2 -1 0
1889 1 15.677605073418379 20.84766869341242 2.8144716209190186 1 -2 -1
1696 1 14.503865982328351 17.118556890046666 5.145682791818089 0 0 1
1082 2 18.69833908913906 21.76421257842561 1.0932300447385055 -1 1 0
2726 1 20.534786568650333 17.63544100427997 5.557955802295219 -2 0 1
932 2 20.86735502462055 21.60132167477152 3.1703535097298023 0 -1 1
2097 1 18.45210243093173 19.805073739461925 1.2777170148744286 0 0 1
692 2 18.65285956035635 17.769957592626408 5.099295929757049 0 0 2
2902 1 20.536150006618694 18.00885521496896 2.7023381795347903 -1 1 1
1463 2 17.211907307536517 19.553120012816 2.7259084166545233 0 -3 2
1625 1 17.87261706604557 19.59718275203871 4.471175428490881 2 -1 0
1109 2 18.930425287878922 21.211245926207177 4.516863585128904 2 0 0
394 2 20.280754859621787 19.26003369094144 1.3352441549264213 0 0 -2
2153 1 20.600489780086278 20.406561071576657 4.6183202973896975 -1 -1 2
2926 1 21.3968857867271 20.71984311144559 1.6402076708272932 0 1 1
15 2 21.214352645367377 18.758708995197228 4.225176948957555 -1 0 1
2399 1 23.094317081062734 18.912441828680038 4.121555261362578 0 -1 1
774 2 25.89259445570371 21.8491983411454 4.151962403298915 0 0 -1
1096 2 23.510147836359362 20.106926222843082 2.7477197699798643 -1 -1 2
2043 1 26.985564604525695 20.815031021500552 1.1282954704851385 0 -2 4
2512 1 24.28038958260121 21.776370526029115 3.097259581893265 1 -1 1
734 2 23.682413767396888 19.65103459825749 5.738585857877719 -2 2 1
2711 1 25.609505992390034 19.884464498462542 5.810524464981224 2 1 0
1408 2 26.363556795144422 18.145818919108255 5.771029460611093 0 0 0
1820 1 24.856256211808873 18.97201090356067 1.9416878556829718 0 1 0
1645 1 23.025346565934935 21.36890784531697 5.738313104617658 0 -1 -1
957 2 24.111024440231002 17.38531918559563 1.2583510479448503 -2 -1 2
1241 2 23.928736112745078 17.10112677246826 4.1769629528583545 -1 0 0
1382 2 26.331949444139216 18.538179999844154 2.9455059929284766 0 1 1
2851 1 25.808914316315203 17.25383313078479 4.212090914807576 1 0 0
270 2 28.683356077777997 21.636238008656647 4.071345998873353 -1 0 -1
946 2 30.912481758295083 18.563230480021407 3.4638197953895533 2 0 0
1939 1 30.051097786768146 17.041640272036165 3.9890526863507265 -2 0 1
1260 2 31.342218067782703 21.36383896280847 4.714549353493244 0 -1 -1
775 2 29.068765770529605 16.86252610876819 5.629606632657663 0 1 1
930 2 28.924268304851967 19.64669312796956 5.333223325346634 2 0 2
531 2 28.86871126717597 16.670349518138778 2.3487918014070983 -1 -1 0
1226 2 30.50767291002675 21.203660846628356 1.6792950272964189 0 0 -2
2695 1 27.62234369815212 17.900900275577428 1.77536476970903 1 1 1
2723 1 30.086513831955592 19.337369366575395 1.9916729216259763 0 0 -1
1946 1 32.30929915204145 20.974466550348446 1.1107611268519548 0 0 0
810 2 28.245477889448953 19.64869938671285 2.037249044344311 -1 -2 -1
2505 1 30.753442125227007 19.49939603971908 5.086447147055122 -2 1 0
1705 1 27.85047484857077 19.97227004823592 3.7993254966619623 -2 -4 -1
1285 2 4.942743554269341 26.410576645813773 1.0070386394000874 1 -1 0
765 2 3.9851466097105495 22.5893912860021 5.68062284464109 0 2 -1
1305 2 5.315045021830804 22.921945000783815 0.7992545806273533 0 0 1
2001 1 1.9721603104344734 23.165782489713703 1.8822196074491833 0 -1 3
573 2 1.5525070590165682 23.190409492822948 3.8117701784775035 2 -2 1
1537 1 1.8813097389722557 26.582004564797256 2.3687968696192376 0 0 1
2188 1 4.414787071869366 24.70930843144371 1.3915653958559797 3 -1 1
2559 1 3.3972552463961603 23.180504612129475 4.055504835936453 2 0 -1
607 2 3.508163646944251 25.493901760134737 5.38783755196821 0 -1 0
566 2 0.6259610488957044 22.729256150892535 0.7597140000007874 2 0 1
838 2 0.775265537133864 26.231483642153716 3.947589496557106 0 1 0
701 2 2.4931516728523455 25.006695148034307 1.4256337983214535 0 1 3
1809 1 1.8603747795592978 26.31817850000387 5.483118234283831 1 3 0
1197 2 4.726882443302428 24.413411553244494 3.241536843415316 0 0 2
2579 1 4.508704686324901 26.08357446967178 4.001219820826903 2 2 -1
1389 2 3.3996916496208582 21.980386122420924 2.5484668704447317 2 0 -1
1715 1 9.390081701782288 23.274855807683696 4.247113741011292 -1 1 1
1575 1 6.542687787476349 23.830990382791605 3.2252341190946283 1 -1 2
1540 1 6.710212239135383 26.784856587292413 1.4713965226133559 2 0 -1
839 2 7.401991763013148 25.4113520403006 2.5246704634089343 0 -3 3
980 2 7.814029079870928 24.286770857932428 4.475255183996638 3 1 1
2606 1 8.972933717693218 24.61154621582896 1.6342155572259418 0 -1 -2
2760 1 8.056465205499062 26.104582370344776 4.233672720965333 0 0 0
1240 2 9.963248144142742 23.327806038147457 2.4858762591641814 1 0 -2
1328 2 10.132214679376574 26.03393381936588 1.333902141828693 1 0 1
241 2 10.980711597595924 23.975036691981607 5.03038270807897 1 0 0
2303 1 10.906209318417877 26.90525527562042 2.8072986053059985 0 1 1
559 2 15.389568067076455 27.225009001923482 2.3090541663391657 -1 -1 0
2796 1 13.741939263327188 26.360555336397084 1.6907648664721615 1 -1 -2
2614 1 14.780845446658363 23.539681594765455 2.421856946384961 1 1 0
2594 1 13.581276123825873 27.10335395552605 4.895588355838512 1 1 0
1366 2 16.330428492593377 24.391027765258357 3.026195469749553 0 -2 0
2215 1 16.239795326013493 26.189653310871147 3.676894332936382 0 1 1
473 2 13.309480873795001 22.93599977059485 3.384554922231967 -1 -1 1
1133 2 13.96797013563244 24.6146564108846 1.0927496063103626 1 -2 -1
2811 1 12.075747420059795 24.368375741993773 3.6617845785271474 1 2 0
651 2 12.64003755178821 26.104613616252916 3.3183463111536122 0 2 2
713 2 15.614321003879027 27.15670481735203 5.2242207229296485 -1 -1 -1
461 2 15.465532281409253 22.106827737236348 1.4007189968916283 0 1 2
1603 1 12.252394808818899 23.827992613921214 0.6567232202566886 2 2 2
2113 1 13.633744575138907 22.03175093176567 4.9391904098428565 0 0 -2
296 2 20.631922668831937 26.84068972488257 2.449725381987434 0 0 4
1758 1 19.052770333159202 22.19753876208 2.8947759434335802 -1 -1 1
426 2 18.15309192413015 26.36623746642424 4.126655730356296 -1 1 -1
176 2 17.926882582591265 26.428119205228857 1.1130341847325809 -2 2 2
2437 1 17.54241182703529 24.664631654499843 1.6921553203616673 0 1 0
2836 1 18.740331887709136 24.720169190087315 4.351586826259411 0 0 1
533 2 19.040606308233087 24.070204730602185 2.6088657631381063 -1 -2 0
942 2 20.472804287044532 23.85546203618231 5.052360663111213 -2 1 -1
1890 1 18.767791074032647 27.043707102688085 5.78740323146043 -2 2 0
2750 1 20.525826628192252 25.020631444558358 1.9385589532972893 -1 -3 1
2972 1 21.41536139137819 26.899706259008443 4.216548989204893 1 0 0
2604 1 21.671338583257903 23.170035165170734 3.727720984003738 1 0 1
1058 2 22.169839206145458 24.23559957257774 2.272696896059036 -2 0 2
1983 1 23.482352093355367 25.57562879786868 2.503958927852837 0 1 -1
2157 1 26.321136592996414 25.26473982035332 4.004052367230718 -1 -1 2
319 2 25.41172739252241 25.129684919970373 2.3585093503992565 -1 0 1
1733 1 23.706260365604713 24.479571817152518 5.304701405526479 0 -1 2
1027 2 23.35343512742597 22.789100759153413 4.478719915646388 0 -2 1
2050 1 25.81947670012585 23.800634466114538 0.9891257763130457 -1 1 -1
669 2 25.557189984279916 24.66863378550219 5.634411567373248 0 1 1
87 2 22.980311589622605 25.91888941659627 4.304546645347751 1 1 -1
1131 2 24.505871373934788 22.421917441118577 1.2263651861079996 1 -2 1
2701 1 22.922955314800294 23.2768085490444 0.7935886971936303 0 -1 1
2574 1 25.543583851856262 27.02285462865666 2.1322105024261298 0 1 1
2700 1 28.993820335781763 27.311109098645044 5.845222864687128 -2 0 0
1522 1 28.918229146699638 24.2842451605832 5.850467559810715 -1 0 0
360 2 27.33839137471739 22.667559535610135 1.471735935877695 -1 0 1
2193 1 27.408351834713965 22.72628771143733 3.3177015902807034 -1 -1 0
576 2 30.917218392774046 24.37931509878082 5.553153529018503 2 -1 0
968 2 27.984170271418645 24.435554618921312 4.149811508835303 1 -2 0
32 2 30.835322802785935 23.93107677579778 2.857763558728221 -2 -1 2
1513 1 29.276608582598403 24.90733592377476 2.9259706761288093 0 -1 0
1365 2 29.52786382846648 25.996003187044213 1.4079409398987868 -1 1 0
2548 1 32.12594774231415 24.481208750481485 4.0587882506543025 -2 -1 1
2162 1 31.32215936301675 23.96454951623321 1.0593106487855872 -1 1 1
1709 1 30.37022843802583 22.029026816571537 3.3291829973429894 -1 -2 1
257 2 30.836738059102277 27.37050530541326 5.958360090406004 0 1 -2
2194 1 29.232068146165453 22.000407048382506 0.5484960361335834 -2 1 1
76 2 2.5889678826660365 31.06058256604397 5.326795071947436 0 -2 1
2179 1 4.2828428663271865 31.92946550235039 4.872532824571344 -1 1 0
1212 2 1.5760236999703008 28.182066807067773 1.231142581885312 0 0 1
2055 1 2.0470098250288746 29.30140601954825 4.554705268556197 -1 -1 1
2400 1 2.1039768778017596 32.23513527316879 3.1462880374141764 1 -1 0
2432 1 3.131846578783636 29.178762549429376 1.6581015013175362 1 -2 1
214 2 2.403395675297591 30.834563176632624 1.9275749116295133 0 1 3
27 2 3.5124863591318607 28.50915340846033 3.43294753692224 0 0 1
2388 1 5.328069439706646 28.875041304895493 3.6449577591817857 0 1 0
905 2 5.419322079971939 27.437862578598516 4.914920524692122 -1 0 1
337 2 5.5813927556565925 30.648762451287013 4.256140461697552 0 0 0
1039 2 10.81133076166913 31.153645672638895 5.880036580975413 -1 1 0
1999 1 9.044108519290655 28.293980029315655 5.578512226908634 -1 0 0
1337 2 10.804934090571845 28.222250816156343 5.965912807638374 1 -3 0
822 2 9.249629139360495 27.571804968280244 3.720570392671656 -1 0 0
2729 1 9.129452871989013 31.232728655295684 5.268836563038837 0 0 0