LAMMPS data file via write_data, version 22 Jul 2025, timestep = 197000, units = metal

3000 atoms
2 atom types

0.4421232824500123 32.7578767175485 xlo xhi
0.4421232824500123 32.7578767175485 ylo yhi
0.4421232824500123 32.7578767175485 zlo zhi

Masses

1 12.01099999691024
2 28.08499999277529

Atoms # atomic

1674 1 1.136103654936143 3.852210506476985 1.1828618716011616 1 0 1
1721 1 2.447640312711747 1.403026168125641 1.4047950075676285 1 0 -1
2330 1 1.5397308998301773 2.3955971712591326 4.1634140382162235 0 0 -1
1894 1 4.092516589317819 0.9846668065114562 4.066446734836399 0 0 1
748 2 2.453409544422424 1.0552064042753715 3.227742511541333 1 1 1
1560 1 4.662123209877583 3.9393597997206293 3.733493900909431 0 0 1
554 2 2.985186855404771 3.4955191074351504 4.7526681772706025 0 0 0
72 2 5.36424271977413 4.432242378639907 1.8268461489673598 1 1 1
225 2 2.8530319639647317 3.118400749454637 0.9251155896451035 0 1 1
385 2 5.238882058943803 2.457450617294683 4.892785790493328 1 2 2
2985 1 2.198906670956007 5.104954080996976 5.323658038022134 0 2 0
9 2 5.601407734882077 5.222247146177182 4.787248060764128 -1 1 1
742 2 0.6260149985867502 1.4443840235135748 5.528804830402525 1 0 -1
2502 1 4.584783461503597 3.439397297160944 0.4801676079480312 -1 0 0
775 2 0.8289577591720494 0.9050876352992081 32.637521696314806 -1 1 -2
146 2 0.45790065934586593 3.354078808126406 2.899511974102063 1 0 0
1483 2 1.1385017115734304 5.70484115956979 0.9360292555879685 -1 1 1
386 2 8.157815049641746 3.572092601681496 3.1163691812615038 0 -1 1
2108 1 8.082644818374675 1.7230429708462303 2.7908809111368433 1 1 1
1880 1 7.461533442663773 4.4858159385233884 4.6577048084682895 0 1 1
1817 1 7.370935993991326 4.239430998860312 1.6368351509887324 0 0 0
617 2 7.8395370974363345 0.64889847478997 4.353571426201486 0 0 -1
2663 1 10.11457574994907 3.9238356135702372 3.0465219091210356 -1 -1 -1
789 2 10.510851972765613 3.0305128487415245 1.4869921138278976 0 1 0
624 2 10.416208930703826 2.5937740313170785 4.380392947080717 0 1 0
2262 1 6.896169216181694 1.7736269040196837 5.539731320235138 0 0 0
187 2 7.236576991898644 0.6575634801950878 1.3253710331360715 1 1 0
110 2 8.48228823761987 5.704195157829042 1.1690873498314138 1 1 0
67 2 11.21134727468941 5.381307638079893 3.5553921736421636 1 1 0
60 2 13.333125885604844 4.3418446466443505 1.388059493215321 1 0 -1
2381 1 12.23349604500662 2.232844534673797 4.160316039574184 0 0 0
1783 1 12.350452562257782 2.7225029722280802 1.0036639690203695 -1 0 1
2951 1 14.624269275704552 0.7053911060429525 5.339838249548328 1 0 1
2750 1 14.633055213571536 3.7966810793335277 5.847213637043794 -1 0 1
1457 2 15.221280315665668 5.194160781463501 4.79706321740774 0 1 0
2334 1 13.067693943050799 4.903224335790093 3.168701144213623 0 -1 0
1437 2 13.650396418870972 3.46563635048342 4.15460230626734 0 0 0
132 2 12.64398839557202 1.3849325163012924 2.41780480691144 0 1 2
1160 2 15.311549219963979 0.7263654214535987 3.437331614894846 1 0 1
1945 1 14.961866724807502 2.5947805488817717 3.152453979032192 0 1 0
1423 2 16.271632885965737 3.6003155685764887 2.399381453635592 0 1 0
249 2 12.793370974868951 1.013376023969402 5.45502002221434 0 0 0
1689 1 15.28637938179072 4.5835869956611015 0.9984716778459154 1 1 1
1897 1 16.68457088639306 4.751814977199537 3.8761380725201957 0 1 1
882 2 17.857008462613198 3.771044782087379 4.868554019375325 0 0 1
854 2 18.122561785174906 1.253282996726711 3.331781476632278 1 0 1
1698 1 17.314431240365995 2.034052000880931 4.8133871965662625 1 0 1
1847 1 17.72624206416362 2.5819476218078865 1.9541511537685483 0 0 1
890 2 19.352042029692146 3.5887102337600782 2.205931769950225 0 1 0
1935 1 20.08849586900429 0.7796209739521149 3.1427749135194274 0 0 2
489 2 20.441217471319174 2.0377000351058414 4.5834848778131265 1 1 1
2938 1 21.1899337023945 3.3104948047633758 1.7678220084570582 -1 1 0
856 2 20.8569060560717 1.4901247049158368 1.5091664007807166 -1 1 2
2956 1 19.518333341495115 3.576460127305352 4.034313329620369 0 0 0
1383 2 20.21879896767366 5.08761132730001 4.8177949481508175 -2 0 0
2680 1 18.677129460774804 5.245731780003831 1.4193729361296639 -1 1 2
2322 1 22.06517566084547 4.989295558988857 4.466152555596367 0 1 0
2525 1 26.971439930026037 5.6585323671833665 1.6255351998821008 0 1 0
973 2 25.605578882341486 1.1382027140023192 5.544687901001091 0 1 1
2159 1 22.737524833839743 1.1159116751053995 1.3308915011940656 1 1 0
1319 2 22.399354727847207 3.6337096617331066 3.1202089317410473 0 0 0
2826 1 22.30215746905577 2.3054695617902894 4.567568238361234 1 0 0
933 2 23.201264422998978 1.0985161529905532 3.3666648254157767 0 0 1
1813 1 24.98184703764983 1.3927888001073288 3.819585043750269 0 1 0
1127 2 27.12676880319662 1.9736587123530087 1.1932995183552229 0 1 0
2998 1 26.996154312451065 4.300348198053144 5.146629392328256 0 1 0
393 2 25.535737951779996 3.0628305451846467 3.38606666197617 0 1 0
2602 1 24.236530531102666 3.793344591035844 2.3619271837422215 0 2 0
323 2 25.00830542859209 5.4749801742761735 1.743649120972104 0 0 1
336 2 24.278666207631534 2.960050693393612 0.6351167955494907 0 -1 1
2110 1 27.432024944818224 2.964301559415389 2.855476608792083 0 1 0
2039 1 27.420437451564297 1.238275133678115 5.1234537626803585 1 0 -1
2806 1 31.471528167062317 0.5188621241568896 4.774178046746114 0 0 1
1647 1 29.894981716230152 3.3088162136594526 5.103446236709975 0 1 1
1208 2 28.119353824783655 2.9161257596914663 4.775630797581943 1 1 0
1477 2 28.336828867263684 4.613279445236213 2.55973566479797 0 0 1
1609 1 31.770115728634188 1.1806208668612619 1.5810517556872228 -1 0 -1
2009 1 29.86344387335619 4.09449291250464 1.2680331703740668 0 1 0
2357 1 28.72753344486222 1.1912566986459696 0.5661177140006208 0 1 1
758 2 30.180340965398862 2.2307646597400583 1.2869341494562616 -1 1 0
1283 2 30.582964474401393 4.95966796613211 4.685954309751606 0 1 1
1550 1 32.217728485147035 4.912050902104184 3.659196456392785 -1 1 1
2584 1 1.7265719292108423 10.359851364581624 5.864474658330215 -1 1 0
2128 1 0.7586832888695338 7.6290911997659 4.880943580105367 0 0 0
1707 1 2.0049162882355933 10.060097236191039 2.698204048331198 1 1 1
258 2 5.323352197221814 10.06533319910697 3.152631271429559 1 0 1
1636 1 4.465168741501205 8.850810407809005 1.8625858006710616 1 0 0
1418 2 3.8865019217804293 7.049691082682469 2.365694520391716 0 -1 0
640 2 1.1563438521034393 8.487536485076403 2.0065976111837003 0 0 1
119 2 1.3155373173243778 6.1126580981450545 3.9907948756351894 0 0 0
829 2 4.615551865525768 8.003778113462158 5.303703057113516 -1 1 1
2603 1 5.016678998172795 6.1908445240619745 1.106616910613844 1 1 0
1650 1 2.0405415950172943 6.729956320937526 2.28949379366551 0 0 0
2211 1 5.022818545650537 6.834034119676188 3.8948703220084884 -1 0 0
639 2 2.8615687217934513 10.637907720629324 4.427786016085549 1 0 0
1459 2 3.3881855585383134 10.309828510557947 1.422456247960405 1 1 1
2621 1 4.4530320379018065 9.817295792950887 4.830970372098902 0 0 1
148 2 10.155463107365915 7.7783581226395535 5.879920050108026 0 0 -1
1028 2 8.35416514792766 6.140351262802948 4.657456928444354 0 1 -1
2959 1 10.229690680163428 6.024695806709178 5.222980230334978 0 0 1
1730 1 7.3149879286495025 7.45529477412786 5.565345992199541 -1 0 0
432 2 8.104802547045598 10.32469178804207 2.1287804681798863 0 -1 0
2496 1 7.131775092217544 10.947654691152769 0.6531226195630229 1 -1 1
368 2 10.319176573095852 10.687409393995063 4.126624342818798 1 0 -1
588 2 11.189003682417145 9.90825025488649 1.019323210121558 -1 -1 1
45 2 6.6084960851006675 7.514792601454869 2.9479534535403897 0 0 0
1803 1 6.917520299246645 9.290421072854942 3.1635317733620973 1 0 -1
145 2 7.875823044267977 9.19165109581346 4.834471445265732 1 0 0
2324 1 8.324636414495483 6.694006460083713 2.836898971273127 1 1 1
1695 1 9.532925308621289 9.2169271014394 1.4929497224956663 -1 0 1
2469 1 9.749767893238554 8.940197260294346 4.449165086292694 1 1 0
866 2 9.807415007828535 7.992972613632967 2.851527753419824 0 0 2
2889 1 16.63950982541377 10.517127365239833 2.3471631010927667 -1 1 0
1542 1 13.95715492398905 10.942872106880547 5.115690688177288 0 -1 -1
478 2 15.770428115058426 10.813898681622137 5.704743762793403 0 1 0
2392 1 14.29541036899232 6.883914497813112 4.8428836233993104 -1 0 1
259 2 13.98177537649486 8.856337328581748 0.7077506931544374 1 0 0
2940 1 11.465202390085585 7.047730220156072 2.5473078929629365 0 0 0
1071 2 11.53106775758386 6.912439839716498 0.6984873015290719 1 0 0
2396 1 16.397705889841664 9.125144345359898 5.063287333869602 0 0 1
1219 2 13.209003526687518 7.433273285457306 3.3835528391874226 -1 1 1
1645 1 14.074842668902171 8.91855142322563 2.6080813711600883 0 0 1
757 2 15.844708715769501 6.30996271446189 1.2511304985947198 0 1 1
1055 2 16.279270736348217 10.531672834638456 0.5071627799172168 1 1 0
24 2 15.924104593659635 8.956670473426122 3.1916760615235042 0 0 -1
1660 1 11.504875343135987 10.806810343715291 2.653814904204369 0 1 1
1269 2 13.357441521412856 10.592505324871642 3.2728531707470094 0 -1 0
679 2 19.887348719664164 8.038591628443761 4.45176345670682 1 0 2
904 2 18.262256213245582 9.30936364439909 5.701530983807741 0 0 1
2350 1 21.61838593556261 6.096221582600888 1.561862586730619 1 0 0
2976 1 19.441312950847163 6.404739500071213 3.83245703292522 0 2 1
986 2 19.87650592599888 6.669565538847479 1.9113039776925347 -1 -1 2
1552 1 19.946172186153824 8.465969510196182 1.4748501476281275 0 0 1
536 2 21.348522362782294 9.243380855256992 2.4514983086736732 -1 0 -1
1946 1 21.70096710756971 8.117013204949071 3.9388340467971834 0 1 0
1397 2 20.662750722661283 10.937881927070544 4.759422709536864 -1 -1 1
2477 1 16.789288244821268 7.455623802279195 2.393740114760296 0 0 0
2677 1 21.71890204312554 11.048390910501539 3.1760883079390387 0 1 0
1078 2 18.047884821864386 11.181335506200163 3.369066110177586 0 0 2
2118 1 19.322131400657046 9.828588351348854 4.147349170459902 0 0 0
354 2 17.765001278749185 6.025271467551799 3.0180247004782634 0 0 0
767 2 22.809095531137217 8.916036709991275 5.348464334138897 0 1 1
629 2 23.613006847675393 11.078164782895454 3.7724550476681893 0 0 0
14 2 26.15665041118019 10.329918633754605 2.048974505104463 0 1 0
2647 1 27.13086239539281 10.017819922607412 3.67116253893964 0 0 0
1402 2 22.33698487584522 6.437714411648622 3.3331249199074744 0 1 0
1508 1 22.88945200508063 8.842224224660537 1.3171485788205968 1 1 0
1191 2 25.006488518030174 6.379703343539737 4.903096867449128 1 1 1
909 2 24.173116178918075 8.249043601166353 2.5785634986296166 0 0 1
2801 1 24.19792499606414 9.323904740190464 4.0634425360375745 0 0 1
2180 1 24.275371710747464 6.471011686210685 3.2288946924288116 -1 1 1
1832 1 26.589901321372103 7.403620705410017 5.137643799610221 -1 1 -1
2067 1 25.870003384514032 8.524521446678168 1.7709550729973196 0 0 0
65 2 25.893754742991828 9.18559768941937 4.7261751468481386 -1 0 0
5 2 23.671120795906347 10.495346371490436 0.8042579274462177 0 1 1
606 2 27.22133186347608 7.322443270461432 2.49839135730241 0 0 0
1281 2 22.48681918697295 7.261750839605496 32.74087280189277 0 1 0
1739 1 24.33055067334386 6.544080221650465 32.64771914478262 -1 1 0
2729 1 29.807711551195233 10.55099214933795 4.171882729440136 -1 0 -1
346 2 30.874886927187333 10.13942811108844 0.876043063537881 0 1 1
416 2 28.825417302051036 9.8136422995183 2.7126251108258526 -1 1 0
1220 2 28.178150182902478 10.57813652872323 5.0891996469690195 -1 2 0
930 2 31.09728954232119 9.297384101834654 4.303530056659684 0 0 0
1004 2 30.61922159548053 7.252457109700446 2.1282536211237337 0 0 -1
2710 1 31.6518361116166 6.59457977633598 0.7211934088366795 0 0 1
1818 1 28.885314240271597 8.094043901792707 1.8357999123313198 -1 -1 -1
2007 1 31.534026187079057 8.821053949086417 2.464296350866841 -2 0 0
896 2 28.052925124857705 5.931202547980481 5.387513457790555 1 0 2
2429 1 29.079423904957352 5.883284220311979 3.8744744198725742 0 1 0
2155 1 4.444913174326878 11.68860243435317 2.025500131222996 0 0 1
2341 1 2.91678670716927 12.512920687222245 4.438918743011259 0 0 -1
577 2 2.726653274268533 15.44790004802252 1.2867813008441642 0 1 2
2791 1 4.223668215496238 14.922854557580694 2.410201488851213 0 0 0
1020 2 5.338277682586804 16.10661993672028 1.4733432489374214 1 0 1
923 2 4.226526629742488 13.075635566847211 5.540402228309537 0 0 -1
718 2 1.9401821967091375 14.895085226732313 5.368096057687091 0 0 0
2808 1 2.078381510070539 13.639891051893859 1.6679500359870774 1 0 0
894 2 3.5302028032378523 13.058860668105394 2.769572108126632 1 1 1
178 2 0.9731727816343124 11.378438496156155 2.037968671834049 0 1 0
39 2 5.878349123568326 12.322354592981043 0.8479373795075335 -1 0 1
507 2 0.6868886726067394 11.76924090524795 5.045519512463603 0 0 0
2318 1 9.370700943981033 15.769586914039726 0.6136255688315676 0 0 0
913 2 6.32962251166108 16.544270977869495 5.649075998205337 0 -1 1
2146 1 5.93209008034458 12.956454995676694 4.540196915724054 1 1 0
414 2 6.043384323368611 14.28203905806313 3.250853045378153 0 0 0
171 2 7.585092801430604 12.155724978248186 4.897491594127357 -1 1 1
2175 1 8.612118171865488 11.597608033956234 3.40293921676614 -1 -1 0
1625 1 6.9825784649122244 13.628088676294588 1.6473827693178489 1 1 2
18 2 8.7141648125099 12.990081933281946 2.112365187470725 0 0 1
2172 1 9.9702452515476 12.721911096010212 0.8204484835041859 0 -1 1
2763 1 6.661375623358973 15.92404164382929 3.842086944335529 0 0 1
390 2 8.528929856235852 15.90265795972429 3.9060240222573808 1 -1 0
2017 1 9.545602905599415 14.411517425905314 3.1562944289250843 0 0 0
1118 2 10.658698922829139 15.192818339943612 1.9391009796983487 0 0 0
2280 1 9.240816025406213 16.029120323991627 5.745881154786155 -1 0 1
1149 2 10.241158449805198 13.647471374505704 4.6305295659694945 1 0 0
2448 1 8.765529009259001 13.169387938873626 5.815719060163618 0 0 1
2737 1 11.16148555520053 11.426872195715967 5.639057275720406 1 0 0
472 2 13.547120298948819 14.781800643019785 0.6991466620944276 1 0 0
224 2 11.615632609554769 12.461377950514304 1.7028552141267674 0 1 0
3000 1 14.089159156322522 12.325211493049602 2.8050518660836596 -1 -1 0
1421 2 15.07096338465997 15.519883870066298 5.639954450247159 1 0 1
138 2 13.974783002547984 12.743611431703412 4.617777613950669 1 -1 1
2260 1 11.829233463072466 14.433880881274526 5.182697669144526 0 0 1
574 2 15.652007230138647 12.282717806419754 1.876388254584655 -1 1 1
2689 1 12.307100485301596 14.209627589903087 2.0017662644992225 1 1 1
451 2 12.651723508783606 15.204678856026305 3.569703978563394 0 0 1
2541 1 14.339435274638545 15.923865565285777 3.9307015533968332 0 0 0
1433 2 15.546511415566261 15.4395143398434 2.643223933278933 0 -1 0
1573 1 15.064109970824424 15.893374922438742 0.8836895546983456 -1 0 0
2485 1 15.360317007391474 13.730576587684865 5.425296482599862 0 1 0
1858 1 16.501697886358162 13.819283124444029 2.5882694112357885 1 -1 1
468 2 20.87947713659471 16.400558885314027 5.203265435843083 0 0 1
565 2 16.80861785710707 13.49506088156941 4.3698845191943745 -1 -1 0
1984 1 17.231749655874726 11.789397004727164 4.957181659343565 1 0 -1
883 2 18.176738663545965 14.06589341019133 1.5950744177537854 0 0 1
1942 1 19.11692878957739 12.775704961793402 2.6585726447912905 0 1 1
1613 1 21.737979464137915 13.62750506436273 1.2652211182257944 -1 0 1
683 2 19.703291115270897 13.82106711083208 4.03318691704386 -1 1 0
101 2 20.725080146292978 12.047857357236802 1.8483322856502131 -1 1 0
659 2 18.07741601982129 16.406235822519534 3.8015570837384156 0 1 1
1615 1 18.12187369963017 15.962995643776491 1.8871075860181719 -1 0 1
2022 1 18.227463605394988 14.742190065964653 4.61436985223849 0 0 0
2079 1 21.25246033914949 14.986157283285227 3.985677892552015 -1 1 1
2548 1 20.06734458575427 12.598266803301668 5.4869489441933785 -1 0 1
2634 1 24.56228763741908 13.87204594791945 0.461305628493508 0 0 0
234 2 24.74953074612114 15.787483161805639 0.5289272392685946 0 0 0
1605 1 24.561450037091785 11.309884245322934 2.2190038283345155 0 1 2
1306 2 23.62300716537659 13.872110447068858 5.0001515274826716 0 0 0
1838 1 24.200897235320394 14.256386603025064 3.3124319317852775 0 0 0
2367 1 27.000423324144162 13.246392701077722 2.2515600648702487 0 0 1
90 2 25.137234536930414 13.131041682798804 2.063877432492462 -1 0 0
2809 1 24.066672520178166 12.11414006361651 5.390623034786343 0 1 0
837 2 22.548164815885038 14.924390153032645 2.3770079837532583 -1 0 1
2542 1 23.16866005063143 16.313058943600225 1.3463239514435157 -1 0 1
2185 1 26.960443219948402 15.012313480789835 4.5789641361543465 0 1 0
2665 1 26.10111800061833 16.138026920747173 1.8370611138041566 0 -1 0
510 2 25.487479161785313 15.586988409634289 3.461688232493267 0 0 1
2820 1 32.26432022814187 11.214273521176393 32.66629032350751 -1 -1 -1
2378 1 29.483210904792443 11.243221392870929 1.5583047794255982 0 0 1
2569 1 27.487678002776263 12.257985283562416 5.428411154151478 -1 0 -1
1222 2 27.5559884513347 15.029311559453085 1.4898607538708137 -1 0 0
964 2 32.656932830455794 13.884064498279056 2.5052323651321156 -1 1 0
834 2 31.49743481804535 15.828513309283636 5.452282024214925 1 1 0
897 2 27.744310987101233 13.43022667455091 3.9720000519935743 0 0 0
1010 2 27.938156174886394 12.146306528745312 0.9740377406176357 0 0 0
503 2 30.418769514465378 12.04327688049809 3.198593480114069 1 0 0
1781 1 32.33522779214417 12.22059662601587 3.36173705213268 0 0 0
2718 1 29.615749971832383 13.544343563437959 3.8270163052003023 -1 0 0
2881 1 31.311776462027456 14.044383214792006 1.0404848399670668 0 0 1
300 2 28.614284850771377 15.887762877067575 4.601619547183097 0 1 0
940 2 30.36304499045987 14.838497198134771 2.5636470043545407 -1 0 0
2442 1 31.999179913817052 15.452886784605044 3.652905372629993 -1 -1 0
2576 1 28.996747218127506 15.979304781478948 2.2396412417234353 -1 -1 1
2284 1 1.8126149045019249 20.034271712919516 1.1104211961568888 1 0 0
1907 1 4.184828342281625 21.66439651190317 2.31686766265587 0 0 0
1524 1 5.0246402453644885 20.732455622516767 5.246488987350327 0 0 0
223 2 4.851648757071345 20.318988555079198 3.470746358529325 1 1 1
381 2 2.4244152669349335 21.54379351166731 2.0961986578430745 1 -1 0
1230 2 2.0916325375536697 19.783401017307167 4.264460550376916 0 0 0
2150 1 1.805281637201333 17.035151239550757 1.5605637408215776 0 1 1
982 2 3.7654140929265236 17.172796440849968 4.221373814899544 1 0 -1
2802 1 2.0664602590662633 16.647733719471336 4.5887663194984505 1 0 0
1840 1 4.499753709166411 17.705114549601316 0.9773024068284363 0 1 1
2087 1 3.5538783563008174 18.909244393735335 3.359619418989438 1 0 1
895 2 5.193654046860803 21.607393656453315 0.6986304675538528 1 -1 0
92 2 2.930712462929556 18.55141325366061 1.641256005572312 1 1 1
1823 1 4.688121461270063 17.5494330080579 5.776958766162884 0 0 -1
421 2 0.80673270964342 17.01572793368276 3.2090251363594855 1 1 -1
1986 1 2.177347297741161 21.671272810994424 4.988445228085433 0 -1 -1
2746 1 7.391184355199194 18.141568100408293 5.741348492676361 0 0 1
551 2 5.982750719827851 18.81358964457243 1.2590601803566008 2 0 1
1731 1 10.370307096195276 18.50438927149199 0.5935725138885026 1 0 1
1950 1 8.712175847575333 21.159210580264503 1.0634402099542362 0 -1 1
1013 2 7.531905369680681 21.195333829938566 2.5544278402580582 0 0 0
1802 1 6.468339186024347 19.67258258857428 2.825147617704671 -1 0 1
1458 2 10.405486812616255 20.27307540049219 1.308235620226604 0 0 0
2655 1 10.818528522418246 19.759244539026074 3.140822977010939 -1 -1 0
1059 2 9.081638867584322 17.420293557113254 1.2978432643482776 0 0 0
517 2 7.894193049161128 18.828638962036383 4.0977611168518076 0 1 -1
2598 1 9.028854606977982 17.551823899011726 3.2481147821022307 0 -1 1
1223 2 10.786926279546748 17.96823136316945 3.758541203592076 1 0 0
2924 1 8.425909512192987 20.800091362757527 5.075309928656909 0 0 1
256 2 6.756376667360628 21.72759564502455 5.175315521615761 1 -2 1
2156 1 7.4969662684177365 17.997196391379106 0.6445064014808336 0 0 1
1150 2 14.586306963751689 20.141888792703874 5.554788190394224 0 0 -1
532 2 12.504361789740745 20.328457797173275 3.6366700310118354 1 -1 0
1980 1 13.889311263389503 19.19354203325784 3.2068679854152675 0 -1 1
206 2 14.75198500511266 19.398556246395 1.4643479948199702 1 -1 2
2742 1 15.212896625787424 21.223215627899542 1.0860694106183941 -1 0 1
154 2 11.968407405050439 17.6538871817492 1.0734309418582448 0 1 1
966 2 13.810638847680892 17.719306238195635 4.447278454668581 -2 0 0
1587 1 12.728083199349312 20.498476983879083 5.605559064992203 1 0 -1
2591 1 12.113100132423549 17.58371826928355 5.141438035689423 -1 1 1
1893 1 11.64171706660862 16.675264657153512 2.6753883601897925 0 0 0
1868 1 16.428121511610236 18.507684156153086 0.9907407849600751 -1 0 1
1156 2 16.596487363821726 17.893606186463018 5.632847176312079 0 0 1
2076 1 16.810968577311034 17.679610727572726 3.7688893227924645 1 2 0
98 2 16.801249840927827 16.612666978344425 0.8047495337890815 -1 0 0
1332 2 17.149687557118398 21.654207259683325 1.461735025736538 0 0 0
1012 2 17.470966509817117 18.960665603591305 2.5315843468445562 -1 0 0
1748 1 17.362551420432542 20.812838773656605 3.075725177284581 1 -1 0
1142 2 20.2259155293096 18.798538430272192 3.529998118217197 -1 0 1
218 2 21.648274077711957 21.808607261371996 3.3264794224516168 0 0 1
1805 1 19.342153109835344 18.732698788503093 1.9791208060727017 0 1 -1
2273 1 20.712624628250037 19.92697526000671 5.109206003225282 -1 -1 1
2363 1 19.504709894819776 17.4399440911097 4.603034624349476 0 1 0
1249 2 19.65686903463876 16.872303691719758 1.7619208185700885 1 -1 0
2084 1 23.124334570717576 21.383114185067363 2.308063653881772 0 -1 0
1205 2 26.393312000109628 18.028737153945812 1.798661174093178 -1 0 1
1789 1 24.617090934097813 18.773692229402535 1.4600772016222194 0 0 -1
1630 1 26.593556959040246 19.27051039457532 3.210204448714512 1 1 0
2780 1 26.26502613460005 21.34126968186743 1.0274963346630335 -1 0 1
431 2 25.694369964101355 18.59038098603073 4.63934071552572 0 -1 0
2571 1 24.315533172018313 19.779460169419806 5.197328070484623 0 0 0
1671 1 24.649350911888273 17.080164703277084 4.1848499555160785 0 1 1
2194 1 22.09966024248353 18.59592947940904 3.0867380937577047 0 -1 -1
879 2 24.087939024510877 21.686400233034668 5.2037298420263705 -1 0 -1
1469 2 25.697669820361376 20.910684511783224 2.7344663063615555 0 -1 1
546 2 22.445548038707848 19.09894420928225 4.872344403287131 0 0 1
343 2 22.964626131303618 19.628366492960712 1.7282648265482272 0 1 -1
855 2 23.67298902569769 17.654095212012564 2.6319954627184345 0 -1 0
114 2 28.622180796596723 21.50160966909366 4.575610255048984 0 2 1
2610 1 29.765341144722353 20.16088210353845 5.327619808803807 0 0 1
2604 1 31.78988122118541 17.721498331893002 5.756434361796355 0 0 0
1073 2 29.265522398182267 17.30228806125769 0.8491906306657181 0 -1 0
689 2 32.42330374115488 19.6473947614363 1.8776819790597394 0 -1 1
1955 1 27.83017875565929 18.493722684690354 0.6042106041132722 0 0 0
2799 1 28.13003878080125 17.600300767959283 4.9577877153190535 0 1 1
2841 1 28.448848632323987 21.288082277397546 2.791559881397332 -1 -2 1
824 2 28.340235299406874 18.69371186769826 3.478492805379522 0 -1 -1
28 2 29.790318761857915 20.40424272903432 1.9345614005896827 -1 0 0
1777 1 29.961969391743473 18.721203088019443 2.811718329265059 0 0 0
2879 1 31.470822372300123 21.207718502163214 2.320808957407012 0 -1 0
2468 1 0.509636999016891 18.89288088407428 3.54501189253807 1 -2 0
1336 2 31.132592362707648 18.993251586646394 4.340337639348274 0 -2 0
1302 2 1.079406443951676 23.045650275693543 4.455794025114253 0 0 1
2131 1 1.53336788443301 23.06594723869458 2.5636624918820385 0 1 -1
1048 2 4.8757390734307124 23.28674204230207 3.0716686615049396 -1 0 1
1794 1 1.0816445379149848 25.155806093232805 4.391770629859221 0 0 2
2446 1 1.300329561321964 25.893711388738403 1.4545121623550465 1 1 0
1994 1 4.227111713125569 24.776566045994812 2.0130977129783534 1 0 2
144 2 2.4139970588787003 24.41832119063028 1.531553938090019 1 -1 0
2001 1 4.2762732833192825 23.793254881331674 4.7416383949506224 1 -2 -1
1456 2 5.747726269729127 24.453351013462886 5.682827478558482 0 0 1
2828 1 3.837427774653873 26.829063811338443 4.9236418528953045 1 -1 2
969 2 2.920127969981524 25.16849963282982 4.8869332017402884 0 0 0
1027 2 5.426813826520648 26.827648546319768 3.924400311276976 0 -1 2
3 2 3.790225308550566 22.284430940113605 5.730960380722152 1 0 0
1155 2 8.122091796159374 23.03698949708823 32.74251315883972 0 -1 0
2241 1 6.220318797897761 23.080565536663475 32.689918303783905 1 -1 -1
2038 1 6.299288581071794 26.32845633317759 0.6967754565095777 0 -1 -1
857 2 7.41478097474168 26.867361981463855 2.039691942506821 0 0 0
2549 1 8.680828647898274 24.249182724570097 1.786188610992969 -1 0 0
1862 1 6.6861900235424105 25.430485899173256 4.3964890329031485 1 0 0
63 2 10.228171946785913 25.5341794789164 4.632017306259916 1 -1 1
359 2 10.55827964012089 24.084214192766243 1.6814573530792591 2 0 0
1327 2 7.801073482697241 24.035878491234865 3.552388323373588 0 0 0
2648 1 9.27412368355282 23.898007530476857 4.807707059611836 1 -1 0
2870 1 6.665240781819285 22.573892403239462 3.4873817695543807 -1 1 2
2308 1 9.644262711320486 27.137094056176338 3.8828563242032983 0 0 0
653 2 10.27110895154742 27.1189766235694 2.174648264430719 0 2 0
2486 1 12.679910198096819 23.464647115739787 5.787134295635 0 1 0
2948 1 11.376334064615632 24.659624205204068 3.228048600429656 0 0 1
1740 1 11.958993995939943 26.81304088554636 1.6271873284043483 1 0 0
2767 1 13.634923095775628 25.928570083678526 4.543205681253498 -1 -1 0
50 2 13.029527833649592 25.61790833175695 2.7079322898001434 0 -1 0
198 2 15.066030103099239 27.03752542929898 4.298228599702475 -1 0 1
568 2 15.499713341757651 26.905495110374357 1.422697640116639 -1 0 1
2823 1 14.679797337292797 25.23581710840135 1.611364231535531 1 0 0
521 2 16.0123876481871 24.423974826149838 2.6395995608780867 0 0 0
428 2 11.670040096853509 23.05684635750883 4.221791786717747 1 0 1
387 2 14.220618972584319 22.28113805945139 2.2681604593414972 0 -1 2
2747 1 15.223452358766574 23.16585333446131 3.7086245091746695 2 0 0
618 2 14.342521341405826 24.1981720038216 5.213928138018491 -1 0 0
2538 1 16.58453320350348 26.029890275963652 3.667750042222036 0 0 1
2499 1 12.56575486445216 22.089836733411563 2.9269284411314973 0 0 0
229 2 21.06791637958905 24.66989634545581 2.257873975740557 0 1 2
2281 1 18.041102450009426 23.41871590972166 4.610232703797007 0 0 0
2770 1 18.36403317392551 26.24597864305944 5.829102644785593 1 -1 0
795 2 16.71553401499948 22.075598994460172 4.410734093460658 0 1 0
1879 1 20.296861260853913 22.958084315118086 2.7366713704336294 0 0 -1
1108 2 19.67753099484357 23.150534222065605 5.451707530901261 0 2 0
394 2 17.197280404397198 24.93319662980747 5.214512478718254 0 0 1
1450 2 19.34468759726685 26.765015010834148 1.26310100510966 0 -1 1
2413 1 20.76423527007208 24.626646301182262 5.428213357887405 0 -1 1
2503 1 17.38150025000641 23.5906501117832 1.4844203726873786 0 -2 0
1151 2 18.722953799037096 23.822784977305723 2.886994739292144 0 0 0
1052 2 19.878921614409908 26.113168368737846 4.689884295600905 0 0 1
1874 1 19.592945933058434 25.68153339341167 2.885613313528118 0 -1 1
2977 1 22.29909314624614 22.3004246695044 4.9469320107939305 0 0 1
2885 1 22.82838465807547 24.735197445926598 3.1365666620878807 0 1 0
1869 1 23.996947061171415 26.70163286320057 1.0505073644802405 -2 0 -1
1217 2 23.6263964573079 26.513338971267665 2.8138214431135453 0 0 0
2552 1 26.40918212867203 24.87964615959761 1.4992762649821103 -1 -1 1
636 2 23.853119070237536 23.148011929865635 2.4506490988855774 0 -1 0
2714 1 23.06009955264155 26.60324330959219 6.047617154495209 0 0 0
1548 1 26.453591856203737 25.008661322232225 5.500371088022558 -1 -1 0
2993 1 23.975118908313743 23.539270603633412 0.6298460894716615 1 0 0
2792 1 25.15806256696529 22.48338900861653 3.822769034439274 1 1 -1
299 2 22.531586381847536 24.20012387821972 4.9719902229852915 0 0 0
1338 2 24.84831174695646 25.175919725693962 0.455544054842204 0 0 1
361 2 27.348937901855805 26.754241205977525 5.314731039092469 0 -1 1
613 2 27.397391939395554 26.49930560517588 1.669240088456304 -1 0 0
650 2 27.49599911321828 24.400892119164254 4.051229270416354 0 0 1
965 2 32.25076538665492 25.84194386853543 5.752833051568127 0 0 -1
2432 1 30.386965703893186 25.947038681119146 5.480143511702957 0 0 0
1834 1 28.44509560503019 25.847674771011203 3.011572144093038 -1 1 0
129 2 29.776664094016386 26.982578128496375 3.882815959640377 0 0 0
365 2 29.773600892950785 25.019045515371847 1.9011118473626065 -1 -1 1
2329 1 29.0166486503571 23.64734088821763 0.9336766150311022 0 -1 0
849 2 32.33499508718478 25.810058778470857 2.94507302510996 -1 -1 0
2307 1 31.12629366212443 24.44373991783958 2.968146723435126 0 0 0
1470 2 30.412130169845423 24.082352730166622 4.717118041671152 -1 -1 0
2508 1 28.729449509339716 23.350507093480765 5.0386104583342775 -1 -1 0
501 2 32.04198055741857 22.99886183021126 2.1200030453881165 0 -1 1
2585 1 30.748042622774815 26.078712457860508 0.6900090997730358 0 1 0
1449 2 27.886504383449456 22.16474165723349 1.3106743029687797 0 0 1
2005 1 31.67721319249054 22.92556627364159 5.412306064522113 1 0 0
1962 1 2.939841609906351 29.604781354185434 5.664087557661689 0 1 1
348 2 3.6490431411304436 32.47058680269966 0.7733492049982229 1 0 0
483 2 1.5781667457471589 30.953833726931332 5.137512869248491 0 0 0
2638 1 5.390689399940646 32.701208500765766 1.5718501628558397 1 -2 0
1399 2 4.728630278549482 30.121022243151096 5.451308935713307 2 -1 0
989 2 0.6639383404098778 30.276206052547558 1.0688009998006691 0 0 2
2588 1 4.443597473153474 30.39006076035024 3.524125790748717 0 0 1
2274 1 2.7046466652265924 30.79530732516177 1.0854716342248052 1 -1 1
2734 1 1.5894487534461463 31.717440938249442 3.46236768026652 0 -1 -1
1854 1 1.7488214036721121 28.727579198477446 3.0916515158734903 1 0 0
1196 2 2.6806804483006803 30.319530028877203 2.8336736708996124 0 -1 0
630 2 5.65110275183431 29.515535878747766 2.4190593402567107 0 0 0
625 2 5.270829842030581 32.073590598046465 3.2955062011954923 1 -1 0
1068 2 1.7766806214031565 27.712511158585603 1.358600250386142 0 -1 1